V -t * -v 1.0a5 -a 0
A -t * -n 1 -p 0 -o 0x7fffffff -c 30 -a 1
A -t * -h 1 -m 1073741823 -s 0
n -t * -a 4 -s 4 -S UP -v box -c black -i black
n -t * -a 0 -s 0 -S UP -v circle -c black -i black
n -t * -a 5 -s 5 -S UP -v circle -c black -i black
n -t * -a 1 -s 1 -S UP -v circle -c black -i black
n -t * -a 2 -s 2 -S UP -v circle -c black -i black
n -t * -a 3 -s 3 -S UP -v circle -c black -i black
l -t * -s 0 -d 4 -S UP -r 1005000000 -D 0.001 -c black
l -t * -s 1 -d 4 -S UP -r 50000000 -D 0.001 -c black
l -t * -s 2 -d 4 -S UP -r 2000000000 -D 0.001 -c black
l -t * -s 3 -d 4 -S UP -r 200000000 -D 0.001 -c black
l -t * -s 4 -d 5 -S UP -r 1000000 -D 0.001 -c black
+ -t 0 -s 0 -d 4 -p ping -e 5000 -c 0 -i 0 -a 0 -x {0.0 5.0 -1 ------- null}
- -t 0 -s 0 -d 4 -p ping -e 5000 -c 0 -i 0 -a 0 -x {0.0 5.0 -1 ------- null}
h -t 0 -s 0 -d 4 -p ping -e 5000 -c 0 -i 0 -a 0 -x {0.0 5.0 -1 ------- null}
+ -t 0 -s 2 -d 4 -p ping -e 3000 -c 0 -i 1 -a 0 -x {2.0 3.0 -1 ------- null}
- -t 0 -s 2 -d 4 -p ping -e 3000 -c 0 -i 1 -a 0 -x {2.0 3.0 -1 ------- null}
h -t 0 -s 2 -d 4 -p ping -e 3000 -c 0 -i 1 -a 0 -x {2.0 3.0 -1 ------- null}
r -t 0.001012 -s 2 -d 4 -p ping -e 3000 -c 0 -i 1 -a 0 -x {2.0 3.0 -1 ------- null}
+ -t 0.001012 -s 4 -d 3 -p ping -e 3000 -c 0 -i 1 -a 0 -x {2.0 3.0 -1 ------- null}
- -t 0.001012 -s 4 -d 3 -p ping -e 3000 -c 0 -i 1 -a 0 -x {2.0 3.0 -1 ------- null}
h -t 0.001012 -s 4 -d 3 -p ping -e 3000 -c 0 -i 1 -a 0 -x {2.0 3.0 -1 ------- null}
r -t 0.00103980099502488 -s 0 -d 4 -p ping -e 5000 -c 0 -i 0 -a 0 -x {0.0 5.0 -1 ------- null}
+ -t 0.00103980099502488 -s 4 -d 5 -p ping -e 5000 -c 0 -i 0 -a 0 -x {0.0 5.0 -1 ------- null}
- -t 0.00103980099502488 -s 4 -d 5 -p ping -e 5000 -c 0 -i 0 -a 0 -x {0.0 5.0 -1 ------- null}
h -t 0.00103980099502488 -s 4 -d 5 -p ping -e 5000 -c 0 -i 0 -a 0 -x {0.0 5.0 -1 ------- null}
r -t 0.002132 -s 4 -d 3 -p ping -e 3000 -c 0 -i 1 -a 0 -x {2.0 3.0 -1 ------- null}
+ -t 0.002132 -s 3 -d 4 -p ping -e 64 -c 0 -i 2 -a 0 -x {3.0 2.0 -1 ------- null}
- -t 0.002132 -s 3 -d 4 -p ping -e 64 -c 0 -i 2 -a 0 -x {3.0 2.0 -1 ------- null}
h -t 0.002132 -s 3 -d 4 -p ping -e 64 -c 0 -i 2 -a 0 -x {3.0 2.0 -1 ------- null}
r -t 0.00313456 -s 3 -d 4 -p ping -e 64 -c 0 -i 2 -a 0 -x {3.0 2.0 -1 ------- null}
+ -t 0.00313456 -s 4 -d 2 -p ping -e 64 -c 0 -i 2 -a 0 -x {3.0 2.0 -1 ------- null}
- -t 0.00313456 -s 4 -d 2 -p ping -e 64 -c 0 -i 2 -a 0 -x {3.0 2.0 -1 ------- null}
h -t 0.00313456 -s 4 -d 2 -p ping -e 64 -c 0 -i 2 -a 0 -x {3.0 2.0 -1 ------- null}
r -t 0.004134816 -s 4 -d 2 -p ping -e 64 -c 0 -i 2 -a 0 -x {3.0 2.0 -1 ------- null}
r -t 0.0420398009950249 -s 4 -d 5 -p ping -e 5000 -c 0 -i 0 -a 0 -x {0.0 5.0 -1 ------- null}
+ -t 0.0420398009950249 -s 5 -d 4 -p ping -e 64 -c 0 -i 3 -a 0 -x {5.0 0.0 -1 ------- null}
- -t 0.0420398009950249 -s 5 -d 4 -p ping -e 64 -c 0 -i 3 -a 0 -x {5.0 0.0 -1 ------- null}
h -t 0.0420398009950249 -s 5 -d 4 -p ping -e 64 -c 0 -i 3 -a 0 -x {5.0 0.0 -1 ------- null}
r -t 0.0435518009950249 -s 5 -d 4 -p ping -e 64 -c 0 -i 3 -a 0 -x {5.0 0.0 -1 ------- null}
+ -t 0.0435518009950249 -s 4 -d 0 -p ping -e 64 -c 0 -i 3 -a 0 -x {5.0 0.0 -1 ------- null}
- -t 0.0435518009950249 -s 4 -d 0 -p ping -e 64 -c 0 -i 3 -a 0 -x {5.0 0.0 -1 ------- null}
h -t 0.0435518009950249 -s 4 -d 0 -p ping -e 64 -c 0 -i 3 -a 0 -x {5.0 0.0 -1 ------- null}
r -t 0.0445523104477612 -s 4 -d 0 -p ping -e 64 -c 0 -i 3 -a 0 -x {5.0 0.0 -1 ------- null}
+ -t 0.1 -s 0 -d 4 -p ping -e 5000 -c 0 -i 4 -a 0 -x {0.0 5.0 -1 ------- null}
- -t 0.1 -s 0 -d 4 -p ping -e 5000 -c 0 -i 4 -a 0 -x {0.0 5.0 -1 ------- null}
h -t 0.1 -s 0 -d 4 -p ping -e 5000 -c 0 -i 4 -a 0 -x {0.0 5.0 -1 ------- null}
+ -t 0.1 -s 2 -d 4 -p ping -e 3000 -c 0 -i 5 -a 0 -x {2.0 3.0 -1 ------- null}
- -t 0.1 -s 2 -d 4 -p ping -e 3000 -c 0 -i 5 -a 0 -x {2.0 3.0 -1 ------- null}
h -t 0.1 -s 2 -d 4 -p ping -e 3000 -c 0 -i 5 -a 0 -x {2.0 3.0 -1 ------- null}
r -t 0.101012 -s 2 -d 4 -p ping -e 3000 -c 0 -i 5 -a 0 -x {2.0 3.0 -1 ------- null}
+ -t 0.101012 -s 4 -d 3 -p ping -e 3000 -c 0 -i 5 -a 0 -x {2.0 3.0 -1 ------- null}
- -t 0.101012 -s 4 -d 3 -p ping -e 3000 -c 0 -i 5 -a 0 -x {2.0 3.0 -1 ------- null}
h -t 0.101012 -s 4 -d 3 -p ping -e 3000 -c 0 -i 5 -a 0 -x {2.0 3.0 -1 ------- null}
r -t 0.101039800995025 -s 0 -d 4 -p ping -e 5000 -c 0 -i 4 -a 0 -x {0.0 5.0 -1 ------- null}
+ -t 0.101039800995025 -s 4 -d 5 -p ping -e 5000 -c 0 -i 4 -a 0 -x {0.0 5.0 -1 ------- null}
- -t 0.101039800995025 -s 4 -d 5 -p ping -e 5000 -c 0 -i 4 -a 0 -x {0.0 5.0 -1 ------- null}
h -t 0.101039800995025 -s 4 -d 5 -p ping -e 5000 -c 0 -i 4 -a 0 -x {0.0 5.0 -1 ------- null}
r -t 0.102132 -s 4 -d 3 -p ping -e 3000 -c 0 -i 5 -a 0 -x {2.0 3.0 -1 ------- null}
+ -t 0.102132 -s 3 -d 4 -p ping -e 64 -c 0 -i 6 -a 0 -x {3.0 2.0 -1 ------- null}
- -t 0.102132 -s 3 -d 4 -p ping -e 64 -c 0 -i 6 -a 0 -x {3.0 2.0 -1 ------- null}
h -t 0.102132 -s 3 -d 4 -p ping -e 64 -c 0 -i 6 -a 0 -x {3.0 2.0 -1 ------- null}
r -t 0.10313456 -s 3 -d 4 -p ping -e 64 -c 0 -i 6 -a 0 -x {3.0 2.0 -1 ------- null}
+ -t 0.10313456 -s 4 -d 2 -p ping -e 64 -c 0 -i 6 -a 0 -x {3.0 2.0 -1 ------- null}
- -t 0.10313456 -s 4 -d 2 -p ping -e 64 -c 0 -i 6 -a 0 -x {3.0 2.0 -1 ------- null}
h -t 0.10313456 -s 4 -d 2 -p ping -e 64 -c 0 -i 6 -a 0 -x {3.0 2.0 -1 ------- null}
r -t 0.104134816 -s 4 -d 2 -p ping -e 64 -c 0 -i 6 -a 0 -x {3.0 2.0 -1 ------- null}
r -t 0.142039800995025 -s 4 -d 5 -p ping -e 5000 -c 0 -i 4 -a 0 -x {0.0 5.0 -1 ------- null}
+ -t 0.142039800995025 -s 5 -d 4 -p ping -e 64 -c 0 -i 7 -a 0 -x {5.0 0.0 -1 ------- null}
- -t 0.142039800995025 -s 5 -d 4 -p ping -e 64 -c 0 -i 7 -a 0 -x {5.0 0.0 -1 ------- null}
h -t 0.142039800995025 -s 5 -d 4 -p ping -e 64 -c 0 -i 7 -a 0 -x {5.0 0.0 -1 ------- null}
r -t 0.143551800995025 -s 5 -d 4 -p ping -e 64 -c 0 -i 7 -a 0 -x {5.0 0.0 -1 ------- null}
+ -t 0.143551800995025 -s 4 -d 0 -p ping -e 64 -c 0 -i 7 -a 0 -x {5.0 0.0 -1 ------- null}
- -t 0.143551800995025 -s 4 -d 0 -p ping -e 64 -c 0 -i 7 -a 0 -x {5.0 0.0 -1 ------- null}
h -t 0.143551800995025 -s 4 -d 0 -p ping -e 64 -c 0 -i 7 -a 0 -x {5.0 0.0 -1 ------- null}
r -t 0.144552310447761 -s 4 -d 0 -p ping -e 64 -c 0 -i 7 -a 0 -x {5.0 0.0 -1 ------- null}
+ -t 0.2 -s 0 -d 4 -p ping -e 5000 -c 0 -i 8 -a 0 -x {0.0 5.0 -1 ------- null}
- -t 0.2 -s 0 -d 4 -p ping -e 5000 -c 0 -i 8 -a 0 -x {0.0 5.0 -1 ------- null}
h -t 0.2 -s 0 -d 4 -p ping -e 5000 -c 0 -i 8 -a 0 -x {0.0 5.0 -1 ------- null}
+ -t 0.2 -s 2 -d 4 -p ping -e 3000 -c 0 -i 9 -a 0 -x {2.0 3.0 -1 ------- null}
- -t 0.2 -s 2 -d 4 -p ping -e 3000 -c 0 -i 9 -a 0 -x {2.0 3.0 -1 ------- null}
h -t 0.2 -s 2 -d 4 -p ping -e 3000 -c 0 -i 9 -a 0 -x {2.0 3.0 -1 ------- null}
r -t 0.201012 -s 2 -d 4 -p ping -e 3000 -c 0 -i 9 -a 0 -x {2.0 3.0 -1 ------- null}
+ -t 0.201012 -s 4 -d 3 -p ping -e 3000 -c 0 -i 9 -a 0 -x {2.0 3.0 -1 ------- null}
- -t 0.201012 -s 4 -d 3 -p ping -e 3000 -c 0 -i 9 -a 0 -x {2.0 3.0 -1 ------- null}
h -t 0.201012 -s 4 -d 3 -p ping -e 3000 -c 0 -i 9 -a 0 -x {2.0 3.0 -1 ------- null}
r -t 0.201039800995025 -s 0 -d 4 -p ping -e 5000 -c 0 -i 8 -a 0 -x {0.0 5.0 -1 ------- null}
+ -t 0.201039800995025 -s 4 -d 5 -p ping -e 5000 -c 0 -i 8 -a 0 -x {0.0 5.0 -1 ------- null}
- -t 0.201039800995025 -s 4 -d 5 -p ping -e 5000 -c 0 -i 8 -a 0 -x {0.0 5.0 -1 ------- null}
h -t 0.201039800995025 -s 4 -d 5 -p ping -e 5000 -c 0 -i 8 -a 0 -x {0.0 5.0 -1 ------- null}
r -t 0.202132 -s 4 -d 3 -p ping -e 3000 -c 0 -i 9 -a 0 -x {2.0 3.0 -1 ------- null}
+ -t 0.202132 -s 3 -d 4 -p ping -e 64 -c 0 -i 10 -a 0 -x {3.0 2.0 -1 ------- null}
- -t 0.202132 -s 3 -d 4 -p ping -e 64 -c 0 -i 10 -a 0 -x {3.0 2.0 -1 ------- null}
h -t 0.202132 -s 3 -d 4 -p ping -e 64 -c 0 -i 10 -a 0 -x {3.0 2.0 -1 ------- null}
r -t 0.20313456 -s 3 -d 4 -p ping -e 64 -c 0 -i 10 -a 0 -x {3.0 2.0 -1 ------- null}
+ -t 0.20313456 -s 4 -d 2 -p ping -e 64 -c 0 -i 10 -a 0 -x {3.0 2.0 -1 ------- null}
- -t 0.20313456 -s 4 -d 2 -p ping -e 64 -c 0 -i 10 -a 0 -x {3.0 2.0 -1 ------- null}
h -t 0.20313456 -s 4 -d 2 -p ping -e 64 -c 0 -i 10 -a 0 -x {3.0 2.0 -1 ------- null}
r -t 0.204134816 -s 4 -d 2 -p ping -e 64 -c 0 -i 10 -a 0 -x {3.0 2.0 -1 ------- null}
r -t 0.242039800995025 -s 4 -d 5 -p ping -e 5000 -c 0 -i 8 -a 0 -x {0.0 5.0 -1 ------- null}
+ -t 0.242039800995025 -s 5 -d 4 -p ping -e 64 -c 0 -i 11 -a 0 -x {5.0 0.0 -1 ------- null}
- -t 0.242039800995025 -s 5 -d 4 -p ping -e 64 -c 0 -i 11 -a 0 -x {5.0 0.0 -1 ------- null}
h -t 0.242039800995025 -s 5 -d 4 -p ping -e 64 -c 0 -i 11 -a 0 -x {5.0 0.0 -1 ------- null}
r -t 0.243551800995025 -s 5 -d 4 -p ping -e 64 -c 0 -i 11 -a 0 -x {5.0 0.0 -1 ------- null}
+ -t 0.243551800995025 -s 4 -d 0 -p ping -e 64 -c 0 -i 11 -a 0 -x {5.0 0.0 -1 ------- null}
- -t 0.243551800995025 -s 4 -d 0 -p ping -e 64 -c 0 -i 11 -a 0 -x {5.0 0.0 -1 ------- null}
h -t 0.243551800995025 -s 4 -d 0 -p ping -e 64 -c 0 -i 11 -a 0 -x {5.0 0.0 -1 ------- null}
r -t 0.244552310447761 -s 4 -d 0 -p ping -e 64 -c 0 -i 11 -a 0 -x {5.0 0.0 -1 ------- null}
+ -t 0.3 -s 0 -d 4 -p ping -e 5000 -c 0 -i 12 -a 0 -x {0.0 5.0 -1 ------- null}
- -t 0.3 -s 0 -d 4 -p ping -e 5000 -c 0 -i 12 -a 0 -x {0.0 5.0 -1 ------- null}
h -t 0.3 -s 0 -d 4 -p ping -e 5000 -c 0 -i 12 -a 0 -x {0.0 5.0 -1 ------- null}
+ -t 0.3 -s 2 -d 4 -p ping -e 3000 -c 0 -i 13 -a 0 -x {2.0 3.0 -1 ------- null}
- -t 0.3 -s 2 -d 4 -p ping -e 3000 -c 0 -i 13 -a 0 -x {2.0 3.0 -1 ------- null}
h -t 0.3 -s 2 -d 4 -p ping -e 3000 -c 0 -i 13 -a 0 -x {2.0 3.0 -1 ------- null}
r -t 0.301012 -s 2 -d 4 -p ping -e 3000 -c 0 -i 13 -a 0 -x {2.0 3.0 -1 ------- null}
+ -t 0.301012 -s 4 -d 3 -p ping -e 3000 -c 0 -i 13 -a 0 -x {2.0 3.0 -1 ------- null}
- -t 0.301012 -s 4 -d 3 -p ping -e 3000 -c 0 -i 13 -a 0 -x {2.0 3.0 -1 ------- null}
h -t 0.301012 -s 4 -d 3 -p ping -e 3000 -c 0 -i 13 -a 0 -x {2.0 3.0 -1 ------- null}
r -t 0.301039800995025 -s 0 -d 4 -p ping -e 5000 -c 0 -i 12 -a 0 -x {0.0 5.0 -1 ------- null}
+ -t 0.301039800995025 -s 4 -d 5 -p ping -e 5000 -c 0 -i 12 -a 0 -x {0.0 5.0 -1 ------- null}
- -t 0.301039800995025 -s 4 -d 5 -p ping -e 5000 -c 0 -i 12 -a 0 -x {0.0 5.0 -1 ------- null}
h -t 0.301039800995025 -s 4 -d 5 -p ping -e 5000 -c 0 -i 12 -a 0 -x {0.0 5.0 -1 ------- null}
r -t 0.302132 -s 4 -d 3 -p ping -e 3000 -c 0 -i 13 -a 0 -x {2.0 3.0 -1 ------- null}
+ -t 0.302132 -s 3 -d 4 -p ping -e 64 -c 0 -i 14 -a 0 -x {3.0 2.0 -1 ------- null}
- -t 0.302132 -s 3 -d 4 -p ping -e 64 -c 0 -i 14 -a 0 -x {3.0 2.0 -1 ------- null}
h -t 0.302132 -s 3 -d 4 -p ping -e 64 -c 0 -i 14 -a 0 -x {3.0 2.0 -1 ------- null}
r -t 0.30313456 -s 3 -d 4 -p ping -e 64 -c 0 -i 14 -a 0 -x {3.0 2.0 -1 ------- null}
+ -t 0.30313456 -s 4 -d 2 -p ping -e 64 -c 0 -i 14 -a 0 -x {3.0 2.0 -1 ------- null}
- -t 0.30313456 -s 4 -d 2 -p ping -e 64 -c 0 -i 14 -a 0 -x {3.0 2.0 -1 ------- null}
h -t 0.30313456 -s 4 -d 2 -p ping -e 64 -c 0 -i 14 -a 0 -x {3.0 2.0 -1 ------- null}
r -t 0.304134816 -s 4 -d 2 -p ping -e 64 -c 0 -i 14 -a 0 -x {3.0 2.0 -1 ------- null}
r -t 0.342039800995025 -s 4 -d 5 -p ping -e 5000 -c 0 -i 12 -a 0 -x {0.0 5.0 -1 ------- null}
+ -t 0.342039800995025 -s 5 -d 4 -p ping -e 64 -c 0 -i 15 -a 0 -x {5.0 0.0 -1 ------- null}
- -t 0.342039800995025 -s 5 -d 4 -p ping -e 64 -c 0 -i 15 -a 0 -x {5.0 0.0 -1 ------- null}
h -t 0.342039800995025 -s 5 -d 4 -p ping -e 64 -c 0 -i 15 -a 0 -x {5.0 0.0 -1 ------- null}
r -t 0.343551800995025 -s 5 -d 4 -p ping -e 64 -c 0 -i 15 -a 0 -x {5.0 0.0 -1 ------- null}
+ -t 0.343551800995025 -s 4 -d 0 -p ping -e 64 -c 0 -i 15 -a 0 -x {5.0 0.0 -1 ------- null}
- -t 0.343551800995025 -s 4 -d 0 -p ping -e 64 -c 0 -i 15 -a 0 -x {5.0 0.0 -1 ------- null}
h -t 0.343551800995025 -s 4 -d 0 -p ping -e 64 -c 0 -i 15 -a 0 -x {5.0 0.0 -1 ------- null}
r -t 0.344552310447761 -s 4 -d 0 -p ping -e 64 -c 0 -i 15 -a 0 -x {5.0 0.0 -1 ------- null}
+ -t 0.4 -s 0 -d 4 -p ping -e 5000 -c 0 -i 16 -a 0 -x {0.0 5.0 -1 ------- null}
- -t 0.4 -s 0 -d 4 -p ping -e 5000 -c 0 -i 16 -a 0 -x {0.0 5.0 -1 ------- null}
h -t 0.4 -s 0 -d 4 -p ping -e 5000 -c 0 -i 16 -a 0 -x {0.0 5.0 -1 ------- null}
+ -t 0.4 -s 2 -d 4 -p ping -e 3000 -c 0 -i 17 -a 0 -x {2.0 3.0 -1 ------- null}
- -t 0.4 -s 2 -d 4 -p ping -e 3000 -c 0 -i 17 -a 0 -x {2.0 3.0 -1 ------- null}
h -t 0.4 -s 2 -d 4 -p ping -e 3000 -c 0 -i 17 -a 0 -x {2.0 3.0 -1 ------- null}
r -t 0.401012 -s 2 -d 4 -p ping -e 3000 -c 0 -i 17 -a 0 -x {2.0 3.0 -1 ------- null}
+ -t 0.401012 -s 4 -d 3 -p ping -e 3000 -c 0 -i 17 -a 0 -x {2.0 3.0 -1 ------- null}
- -t 0.401012 -s 4 -d 3 -p ping -e 3000 -c 0 -i 17 -a 0 -x {2.0 3.0 -1 ------- null}
h -t 0.401012 -s 4 -d 3 -p ping -e 3000 -c 0 -i 17 -a 0 -x {2.0 3.0 -1 ------- null}
r -t 0.401039800995025 -s 0 -d 4 -p ping -e 5000 -c 0 -i 16 -a 0 -x {0.0 5.0 -1 ------- null}
+ -t 0.401039800995025 -s 4 -d 5 -p ping -e 5000 -c 0 -i 16 -a 0 -x {0.0 5.0 -1 ------- null}
- -t 0.401039800995025 -s 4 -d 5 -p ping -e 5000 -c 0 -i 16 -a 0 -x {0.0 5.0 -1 ------- null}
h -t 0.401039800995025 -s 4 -d 5 -p ping -e 5000 -c 0 -i 16 -a 0 -x {0.0 5.0 -1 ------- null}
r -t 0.402132 -s 4 -d 3 -p ping -e 3000 -c 0 -i 17 -a 0 -x {2.0 3.0 -1 ------- null}
+ -t 0.402132 -s 3 -d 4 -p ping -e 64 -c 0 -i 18 -a 0 -x {3.0 2.0 -1 ------- null}
- -t 0.402132 -s 3 -d 4 -p ping -e 64 -c 0 -i 18 -a 0 -x {3.0 2.0 -1 ------- null}
h -t 0.402132 -s 3 -d 4 -p ping -e 64 -c 0 -i 18 -a 0 -x {3.0 2.0 -1 ------- null}
r -t 0.40313456 -s 3 -d 4 -p ping -e 64 -c 0 -i 18 -a 0 -x {3.0 2.0 -1 ------- null}
+ -t 0.40313456 -s 4 -d 2 -p ping -e 64 -c 0 -i 18 -a 0 -x {3.0 2.0 -1 ------- null}
- -t 0.40313456 -s 4 -d 2 -p ping -e 64 -c 0 -i 18 -a 0 -x {3.0 2.0 -1 ------- null}
h -t 0.40313456 -s 4 -d 2 -p ping -e 64 -c 0 -i 18 -a 0 -x {3.0 2.0 -1 ------- null}
r -t 0.404134816 -s 4 -d 2 -p ping -e 64 -c 0 -i 18 -a 0 -x {3.0 2.0 -1 ------- null}
r -t 0.442039800995025 -s 4 -d 5 -p ping -e 5000 -c 0 -i 16 -a 0 -x {0.0 5.0 -1 ------- null}
+ -t 0.442039800995025 -s 5 -d 4 -p ping -e 64 -c 0 -i 19 -a 0 -x {5.0 0.0 -1 ------- null}
- -t 0.442039800995025 -s 5 -d 4 -p ping -e 64 -c 0 -i 19 -a 0 -x {5.0 0.0 -1 ------- null}
h -t 0.442039800995025 -s 5 -d 4 -p ping -e 64 -c 0 -i 19 -a 0 -x {5.0 0.0 -1 ------- null}
r -t 0.443551800995025 -s 5 -d 4 -p ping -e 64 -c 0 -i 19 -a 0 -x {5.0 0.0 -1 ------- null}
+ -t 0.443551800995025 -s 4 -d 0 -p ping -e 64 -c 0 -i 19 -a 0 -x {5.0 0.0 -1 ------- null}
- -t 0.443551800995025 -s 4 -d 0 -p ping -e 64 -c 0 -i 19 -a 0 -x {5.0 0.0 -1 ------- null}
h -t 0.443551800995025 -s 4 -d 0 -p ping -e 64 -c 0 -i 19 -a 0 -x {5.0 0.0 -1 ------- null}
r -t 0.444552310447761 -s 4 -d 0 -p ping -e 64 -c 0 -i 19 -a 0 -x {5.0 0.0 -1 ------- null}
+ -t 0.5 -s 0 -d 4 -p ping -e 5000 -c 0 -i 20 -a 0 -x {0.0 5.0 -1 ------- null}
- -t 0.5 -s 0 -d 4 -p ping -e 5000 -c 0 -i 20 -a 0 -x {0.0 5.0 -1 ------- null}
h -t 0.5 -s 0 -d 4 -p ping -e 5000 -c 0 -i 20 -a 0 -x {0.0 5.0 -1 ------- null}
+ -t 0.5 -s 2 -d 4 -p ping -e 3000 -c 0 -i 21 -a 0 -x {2.0 3.0 -1 ------- null}
- -t 0.5 -s 2 -d 4 -p ping -e 3000 -c 0 -i 21 -a 0 -x {2.0 3.0 -1 ------- null}
h -t 0.5 -s 2 -d 4 -p ping -e 3000 -c 0 -i 21 -a 0 -x {2.0 3.0 -1 ------- null}
r -t 0.501012 -s 2 -d 4 -p ping -e 3000 -c 0 -i 21 -a 0 -x {2.0 3.0 -1 ------- null}
+ -t 0.501012 -s 4 -d 3 -p ping -e 3000 -c 0 -i 21 -a 0 -x {2.0 3.0 -1 ------- null}
- -t 0.501012 -s 4 -d 3 -p ping -e 3000 -c 0 -i 21 -a 0 -x {2.0 3.0 -1 ------- null}
h -t 0.501012 -s 4 -d 3 -p ping -e 3000 -c 0 -i 21 -a 0 -x {2.0 3.0 -1 ------- null}
r -t 0.501039800995025 -s 0 -d 4 -p ping -e 5000 -c 0 -i 20 -a 0 -x {0.0 5.0 -1 ------- null}
+ -t 0.501039800995025 -s 4 -d 5 -p ping -e 5000 -c 0 -i 20 -a 0 -x {0.0 5.0 -1 ------- null}
- -t 0.501039800995025 -s 4 -d 5 -p ping -e 5000 -c 0 -i 20 -a 0 -x {0.0 5.0 -1 ------- null}
h -t 0.501039800995025 -s 4 -d 5 -p ping -e 5000 -c 0 -i 20 -a 0 -x {0.0 5.0 -1 ------- null}
r -t 0.502132 -s 4 -d 3 -p ping -e 3000 -c 0 -i 21 -a 0 -x {2.0 3.0 -1 ------- null}
+ -t 0.502132 -s 3 -d 4 -p ping -e 64 -c 0 -i 22 -a 0 -x {3.0 2.0 -1 ------- null}
- -t 0.502132 -s 3 -d 4 -p ping -e 64 -c 0 -i 22 -a 0 -x {3.0 2.0 -1 ------- null}
h -t 0.502132 -s 3 -d 4 -p ping -e 64 -c 0 -i 22 -a 0 -x {3.0 2.0 -1 ------- null}
r -t 0.50313456 -s 3 -d 4 -p ping -e 64 -c 0 -i 22 -a 0 -x {3.0 2.0 -1 ------- null}
+ -t 0.50313456 -s 4 -d 2 -p ping -e 64 -c 0 -i 22 -a 0 -x {3.0 2.0 -1 ------- null}
- -t 0.50313456 -s 4 -d 2 -p ping -e 64 -c 0 -i 22 -a 0 -x {3.0 2.0 -1 ------- null}
h -t 0.50313456 -s 4 -d 2 -p ping -e 64 -c 0 -i 22 -a 0 -x {3.0 2.0 -1 ------- null}
r -t 0.504134816 -s 4 -d 2 -p ping -e 64 -c 0 -i 22 -a 0 -x {3.0 2.0 -1 ------- null}
r -t 0.542039800995025 -s 4 -d 5 -p ping -e 5000 -c 0 -i 20 -a 0 -x {0.0 5.0 -1 ------- null}
+ -t 0.542039800995025 -s 5 -d 4 -p ping -e 64 -c 0 -i 23 -a 0 -x {5.0 0.0 -1 ------- null}
- -t 0.542039800995025 -s 5 -d 4 -p ping -e 64 -c 0 -i 23 -a 0 -x {5.0 0.0 -1 ------- null}
h -t 0.542039800995025 -s 5 -d 4 -p ping -e 64 -c 0 -i 23 -a 0 -x {5.0 0.0 -1 ------- null}
r -t 0.543551800995025 -s 5 -d 4 -p ping -e 64 -c 0 -i 23 -a 0 -x {5.0 0.0 -1 ------- null}
+ -t 0.543551800995025 -s 4 -d 0 -p ping -e 64 -c 0 -i 23 -a 0 -x {5.0 0.0 -1 ------- null}
- -t 0.543551800995025 -s 4 -d 0 -p ping -e 64 -c 0 -i 23 -a 0 -x {5.0 0.0 -1 ------- null}
h -t 0.543551800995025 -s 4 -d 0 -p ping -e 64 -c 0 -i 23 -a 0 -x {5.0 0.0 -1 ------- null}
r -t 0.544552310447761 -s 4 -d 0 -p ping -e 64 -c 0 -i 23 -a 0 -x {5.0 0.0 -1 ------- null}
+ -t 0.6 -s 0 -d 4 -p ping -e 5000 -c 0 -i 24 -a 0 -x {0.0 5.0 -1 ------- null}
- -t 0.6 -s 0 -d 4 -p ping -e 5000 -c 0 -i 24 -a 0 -x {0.0 5.0 -1 ------- null}
h -t 0.6 -s 0 -d 4 -p ping -e 5000 -c 0 -i 24 -a 0 -x {0.0 5.0 -1 ------- null}
+ -t 0.6 -s 2 -d 4 -p ping -e 3000 -c 0 -i 25 -a 0 -x {2.0 3.0 -1 ------- null}
- -t 0.6 -s 2 -d 4 -p ping -e 3000 -c 0 -i 25 -a 0 -x {2.0 3.0 -1 ------- null}
h -t 0.6 -s 2 -d 4 -p ping -e 3000 -c 0 -i 25 -a 0 -x {2.0 3.0 -1 ------- null}
r -t 0.601012 -s 2 -d 4 -p ping -e 3000 -c 0 -i 25 -a 0 -x {2.0 3.0 -1 ------- null}
+ -t 0.601012 -s 4 -d 3 -p ping -e 3000 -c 0 -i 25 -a 0 -x {2.0 3.0 -1 ------- null}
- -t 0.601012 -s 4 -d 3 -p ping -e 3000 -c 0 -i 25 -a 0 -x {2.0 3.0 -1 ------- null}
h -t 0.601012 -s 4 -d 3 -p ping -e 3000 -c 0 -i 25 -a 0 -x {2.0 3.0 -1 ------- null}
r -t 0.601039800995025 -s 0 -d 4 -p ping -e 5000 -c 0 -i 24 -a 0 -x {0.0 5.0 -1 ------- null}
+ -t 0.601039800995025 -s 4 -d 5 -p ping -e 5000 -c 0 -i 24 -a 0 -x {0.0 5.0 -1 ------- null}
- -t 0.601039800995025 -s 4 -d 5 -p ping -e 5000 -c 0 -i 24 -a 0 -x {0.0 5.0 -1 ------- null}
h -t 0.601039800995025 -s 4 -d 5 -p ping -e 5000 -c 0 -i 24 -a 0 -x {0.0 5.0 -1 ------- null}
r -t 0.602132 -s 4 -d 3 -p ping -e 3000 -c 0 -i 25 -a 0 -x {2.0 3.0 -1 ------- null}
+ -t 0.602132 -s 3 -d 4 -p ping -e 64 -c 0 -i 26 -a 0 -x {3.0 2.0 -1 ------- null}
- -t 0.602132 -s 3 -d 4 -p ping -e 64 -c 0 -i 26 -a 0 -x {3.0 2.0 -1 ------- null}
h -t 0.602132 -s 3 -d 4 -p ping -e 64 -c 0 -i 26 -a 0 -x {3.0 2.0 -1 ------- null}
r -t 0.60313456 -s 3 -d 4 -p ping -e 64 -c 0 -i 26 -a 0 -x {3.0 2.0 -1 ------- null}
+ -t 0.60313456 -s 4 -d 2 -p ping -e 64 -c 0 -i 26 -a 0 -x {3.0 2.0 -1 ------- null}
- -t 0.60313456 -s 4 -d 2 -p ping -e 64 -c 0 -i 26 -a 0 -x {3.0 2.0 -1 ------- null}
h -t 0.60313456 -s 4 -d 2 -p ping -e 64 -c 0 -i 26 -a 0 -x {3.0 2.0 -1 ------- null}
r -t 0.604134816 -s 4 -d 2 -p ping -e 64 -c 0 -i 26 -a 0 -x {3.0 2.0 -1 ------- null}
r -t 0.642039800995025 -s 4 -d 5 -p ping -e 5000 -c 0 -i 24 -a 0 -x {0.0 5.0 -1 ------- null}
+ -t 0.642039800995025 -s 5 -d 4 -p ping -e 64 -c 0 -i 27 -a 0 -x {5.0 0.0 -1 ------- null}
- -t 0.642039800995025 -s 5 -d 4 -p ping -e 64 -c 0 -i 27 -a 0 -x {5.0 0.0 -1 ------- null}
h -t 0.642039800995025 -s 5 -d 4 -p ping -e 64 -c 0 -i 27 -a 0 -x {5.0 0.0 -1 ------- null}
r -t 0.643551800995025 -s 5 -d 4 -p ping -e 64 -c 0 -i 27 -a 0 -x {5.0 0.0 -1 ------- null}
+ -t 0.643551800995025 -s 4 -d 0 -p ping -e 64 -c 0 -i 27 -a 0 -x {5.0 0.0 -1 ------- null}
- -t 0.643551800995025 -s 4 -d 0 -p ping -e 64 -c 0 -i 27 -a 0 -x {5.0 0.0 -1 ------- null}
h -t 0.643551800995025 -s 4 -d 0 -p ping -e 64 -c 0 -i 27 -a 0 -x {5.0 0.0 -1 ------- null}
r -t 0.644552310447761 -s 4 -d 0 -p ping -e 64 -c 0 -i 27 -a 0 -x {5.0 0.0 -1 ------- null}
+ -t 0.7 -s 0 -d 4 -p ping -e 5000 -c 0 -i 28 -a 0 -x {0.0 5.0 -1 ------- null}
- -t 0.7 -s 0 -d 4 -p ping -e 5000 -c 0 -i 28 -a 0 -x {0.0 5.0 -1 ------- null}
h -t 0.7 -s 0 -d 4 -p ping -e 5000 -c 0 -i 28 -a 0 -x {0.0 5.0 -1 ------- null}
+ -t 0.7 -s 2 -d 4 -p ping -e 3000 -c 0 -i 29 -a 0 -x {2.0 3.0 -1 ------- null}
- -t 0.7 -s 2 -d 4 -p ping -e 3000 -c 0 -i 29 -a 0 -x {2.0 3.0 -1 ------- null}
h -t 0.7 -s 2 -d 4 -p ping -e 3000 -c 0 -i 29 -a 0 -x {2.0 3.0 -1 ------- null}
r -t 0.701012 -s 2 -d 4 -p ping -e 3000 -c 0 -i 29 -a 0 -x {2.0 3.0 -1 ------- null}
+ -t 0.701012 -s 4 -d 3 -p ping -e 3000 -c 0 -i 29 -a 0 -x {2.0 3.0 -1 ------- null}
- -t 0.701012 -s 4 -d 3 -p ping -e 3000 -c 0 -i 29 -a 0 -x {2.0 3.0 -1 ------- null}
h -t 0.701012 -s 4 -d 3 -p ping -e 3000 -c 0 -i 29 -a 0 -x {2.0 3.0 -1 ------- null}
r -t 0.701039800995025 -s 0 -d 4 -p ping -e 5000 -c 0 -i 28 -a 0 -x {0.0 5.0 -1 ------- null}
+ -t 0.701039800995025 -s 4 -d 5 -p ping -e 5000 -c 0 -i 28 -a 0 -x {0.0 5.0 -1 ------- null}
- -t 0.701039800995025 -s 4 -d 5 -p ping -e 5000 -c 0 -i 28 -a 0 -x {0.0 5.0 -1 ------- null}
h -t 0.701039800995025 -s 4 -d 5 -p ping -e 5000 -c 0 -i 28 -a 0 -x {0.0 5.0 -1 ------- null}
r -t 0.702132 -s 4 -d 3 -p ping -e 3000 -c 0 -i 29 -a 0 -x {2.0 3.0 -1 ------- null}
+ -t 0.702132 -s 3 -d 4 -p ping -e 64 -c 0 -i 30 -a 0 -x {3.0 2.0 -1 ------- null}
- -t 0.702132 -s 3 -d 4 -p ping -e 64 -c 0 -i 30 -a 0 -x {3.0 2.0 -1 ------- null}
h -t 0.702132 -s 3 -d 4 -p ping -e 64 -c 0 -i 30 -a 0 -x {3.0 2.0 -1 ------- null}
r -t 0.70313456 -s 3 -d 4 -p ping -e 64 -c 0 -i 30 -a 0 -x {3.0 2.0 -1 ------- null}
+ -t 0.70313456 -s 4 -d 2 -p ping -e 64 -c 0 -i 30 -a 0 -x {3.0 2.0 -1 ------- null}
- -t 0.70313456 -s 4 -d 2 -p ping -e 64 -c 0 -i 30 -a 0 -x {3.0 2.0 -1 ------- null}
h -t 0.70313456 -s 4 -d 2 -p ping -e 64 -c 0 -i 30 -a 0 -x {3.0 2.0 -1 ------- null}
r -t 0.704134816 -s 4 -d 2 -p ping -e 64 -c 0 -i 30 -a 0 -x {3.0 2.0 -1 ------- null}
r -t 0.742039800995025 -s 4 -d 5 -p ping -e 5000 -c 0 -i 28 -a 0 -x {0.0 5.0 -1 ------- null}
+ -t 0.742039800995025 -s 5 -d 4 -p ping -e 64 -c 0 -i 31 -a 0 -x {5.0 0.0 -1 ------- null}
- -t 0.742039800995025 -s 5 -d 4 -p ping -e 64 -c 0 -i 31 -a 0 -x {5.0 0.0 -1 ------- null}
h -t 0.742039800995025 -s 5 -d 4 -p ping -e 64 -c 0 -i 31 -a 0 -x {5.0 0.0 -1 ------- null}
r -t 0.743551800995025 -s 5 -d 4 -p ping -e 64 -c 0 -i 31 -a 0 -x {5.0 0.0 -1 ------- null}
+ -t 0.743551800995025 -s 4 -d 0 -p ping -e 64 -c 0 -i 31 -a 0 -x {5.0 0.0 -1 ------- null}
- -t 0.743551800995025 -s 4 -d 0 -p ping -e 64 -c 0 -i 31 -a 0 -x {5.0 0.0 -1 ------- null}
h -t 0.743551800995025 -s 4 -d 0 -p ping -e 64 -c 0 -i 31 -a 0 -x {5.0 0.0 -1 ------- null}
r -t 0.744552310447761 -s 4 -d 0 -p ping -e 64 -c 0 -i 31 -a 0 -x {5.0 0.0 -1 ------- null}
+ -t 0.8 -s 0 -d 4 -p ping -e 5000 -c 0 -i 32 -a 0 -x {0.0 5.0 -1 ------- null}
- -t 0.8 -s 0 -d 4 -p ping -e 5000 -c 0 -i 32 -a 0 -x {0.0 5.0 -1 ------- null}
h -t 0.8 -s 0 -d 4 -p ping -e 5000 -c 0 -i 32 -a 0 -x {0.0 5.0 -1 ------- null}
+ -t 0.8 -s 2 -d 4 -p ping -e 3000 -c 0 -i 33 -a 0 -x {2.0 3.0 -1 ------- null}
- -t 0.8 -s 2 -d 4 -p ping -e 3000 -c 0 -i 33 -a 0 -x {2.0 3.0 -1 ------- null}
h -t 0.8 -s 2 -d 4 -p ping -e 3000 -c 0 -i 33 -a 0 -x {2.0 3.0 -1 ------- null}
r -t 0.801012 -s 2 -d 4 -p ping -e 3000 -c 0 -i 33 -a 0 -x {2.0 3.0 -1 ------- null}
+ -t 0.801012 -s 4 -d 3 -p ping -e 3000 -c 0 -i 33 -a 0 -x {2.0 3.0 -1 ------- null}
- -t 0.801012 -s 4 -d 3 -p ping -e 3000 -c 0 -i 33 -a 0 -x {2.0 3.0 -1 ------- null}
h -t 0.801012 -s 4 -d 3 -p ping -e 3000 -c 0 -i 33 -a 0 -x {2.0 3.0 -1 ------- null}
r -t 0.801039800995025 -s 0 -d 4 -p ping -e 5000 -c 0 -i 32 -a 0 -x {0.0 5.0 -1 ------- null}
+ -t 0.801039800995025 -s 4 -d 5 -p ping -e 5000 -c 0 -i 32 -a 0 -x {0.0 5.0 -1 ------- null}
- -t 0.801039800995025 -s 4 -d 5 -p ping -e 5000 -c 0 -i 32 -a 0 -x {0.0 5.0 -1 ------- null}
h -t 0.801039800995025 -s 4 -d 5 -p ping -e 5000 -c 0 -i 32 -a 0 -x {0.0 5.0 -1 ------- null}
r -t 0.802132 -s 4 -d 3 -p ping -e 3000 -c 0 -i 33 -a 0 -x {2.0 3.0 -1 ------- null}
+ -t 0.802132 -s 3 -d 4 -p ping -e 64 -c 0 -i 34 -a 0 -x {3.0 2.0 -1 ------- null}
- -t 0.802132 -s 3 -d 4 -p ping -e 64 -c 0 -i 34 -a 0 -x {3.0 2.0 -1 ------- null}
h -t 0.802132 -s 3 -d 4 -p ping -e 64 -c 0 -i 34 -a 0 -x {3.0 2.0 -1 ------- null}
r -t 0.80313456 -s 3 -d 4 -p ping -e 64 -c 0 -i 34 -a 0 -x {3.0 2.0 -1 ------- null}
+ -t 0.80313456 -s 4 -d 2 -p ping -e 64 -c 0 -i 34 -a 0 -x {3.0 2.0 -1 ------- null}
- -t 0.80313456 -s 4 -d 2 -p ping -e 64 -c 0 -i 34 -a 0 -x {3.0 2.0 -1 ------- null}
h -t 0.80313456 -s 4 -d 2 -p ping -e 64 -c 0 -i 34 -a 0 -x {3.0 2.0 -1 ------- null}
r -t 0.804134816 -s 4 -d 2 -p ping -e 64 -c 0 -i 34 -a 0 -x {3.0 2.0 -1 ------- null}
r -t 0.842039800995025 -s 4 -d 5 -p ping -e 5000 -c 0 -i 32 -a 0 -x {0.0 5.0 -1 ------- null}
+ -t 0.842039800995025 -s 5 -d 4 -p ping -e 64 -c 0 -i 35 -a 0 -x {5.0 0.0 -1 ------- null}
- -t 0.842039800995025 -s 5 -d 4 -p ping -e 64 -c 0 -i 35 -a 0 -x {5.0 0.0 -1 ------- null}
h -t 0.842039800995025 -s 5 -d 4 -p ping -e 64 -c 0 -i 35 -a 0 -x {5.0 0.0 -1 ------- null}
r -t 0.843551800995025 -s 5 -d 4 -p ping -e 64 -c 0 -i 35 -a 0 -x {5.0 0.0 -1 ------- null}
+ -t 0.843551800995025 -s 4 -d 0 -p ping -e 64 -c 0 -i 35 -a 0 -x {5.0 0.0 -1 ------- null}
- -t 0.843551800995025 -s 4 -d 0 -p ping -e 64 -c 0 -i 35 -a 0 -x {5.0 0.0 -1 ------- null}
h -t 0.843551800995025 -s 4 -d 0 -p ping -e 64 -c 0 -i 35 -a 0 -x {5.0 0.0 -1 ------- null}
r -t 0.844552310447761 -s 4 -d 0 -p ping -e 64 -c 0 -i 35 -a 0 -x {5.0 0.0 -1 ------- null}
+ -t 0.9 -s 0 -d 4 -p ping -e 5000 -c 0 -i 36 -a 0 -x {0.0 5.0 -1 ------- null}
- -t 0.9 -s 0 -d 4 -p ping -e 5000 -c 0 -i 36 -a 0 -x {0.0 5.0 -1 ------- null}
h -t 0.9 -s 0 -d 4 -p ping -e 5000 -c 0 -i 36 -a 0 -x {0.0 5.0 -1 ------- null}
+ -t 0.9 -s 2 -d 4 -p ping -e 3000 -c 0 -i 37 -a 0 -x {2.0 3.0 -1 ------- null}
- -t 0.9 -s 2 -d 4 -p ping -e 3000 -c 0 -i 37 -a 0 -x {2.0 3.0 -1 ------- null}
h -t 0.9 -s 2 -d 4 -p ping -e 3000 -c 0 -i 37 -a 0 -x {2.0 3.0 -1 ------- null}
r -t 0.901012 -s 2 -d 4 -p ping -e 3000 -c 0 -i 37 -a 0 -x {2.0 3.0 -1 ------- null}
+ -t 0.901012 -s 4 -d 3 -p ping -e 3000 -c 0 -i 37 -a 0 -x {2.0 3.0 -1 ------- null}
- -t 0.901012 -s 4 -d 3 -p ping -e 3000 -c 0 -i 37 -a 0 -x {2.0 3.0 -1 ------- null}
h -t 0.901012 -s 4 -d 3 -p ping -e 3000 -c 0 -i 37 -a 0 -x {2.0 3.0 -1 ------- null}
r -t 0.901039800995025 -s 0 -d 4 -p ping -e 5000 -c 0 -i 36 -a 0 -x {0.0 5.0 -1 ------- null}
+ -t 0.901039800995025 -s 4 -d 5 -p ping -e 5000 -c 0 -i 36 -a 0 -x {0.0 5.0 -1 ------- null}
- -t 0.901039800995025 -s 4 -d 5 -p ping -e 5000 -c 0 -i 36 -a 0 -x {0.0 5.0 -1 ------- null}
h -t 0.901039800995025 -s 4 -d 5 -p ping -e 5000 -c 0 -i 36 -a 0 -x {0.0 5.0 -1 ------- null}
r -t 0.902132 -s 4 -d 3 -p ping -e 3000 -c 0 -i 37 -a 0 -x {2.0 3.0 -1 ------- null}
+ -t 0.902132 -s 3 -d 4 -p ping -e 64 -c 0 -i 38 -a 0 -x {3.0 2.0 -1 ------- null}
- -t 0.902132 -s 3 -d 4 -p ping -e 64 -c 0 -i 38 -a 0 -x {3.0 2.0 -1 ------- null}
h -t 0.902132 -s 3 -d 4 -p ping -e 64 -c 0 -i 38 -a 0 -x {3.0 2.0 -1 ------- null}
r -t 0.90313456 -s 3 -d 4 -p ping -e 64 -c 0 -i 38 -a 0 -x {3.0 2.0 -1 ------- null}
+ -t 0.90313456 -s 4 -d 2 -p ping -e 64 -c 0 -i 38 -a 0 -x {3.0 2.0 -1 ------- null}
- -t 0.90313456 -s 4 -d 2 -p ping -e 64 -c 0 -i 38 -a 0 -x {3.0 2.0 -1 ------- null}
h -t 0.90313456 -s 4 -d 2 -p ping -e 64 -c 0 -i 38 -a 0 -x {3.0 2.0 -1 ------- null}
r -t 0.904134816 -s 4 -d 2 -p ping -e 64 -c 0 -i 38 -a 0 -x {3.0 2.0 -1 ------- null}
r -t 0.942039800995025 -s 4 -d 5 -p ping -e 5000 -c 0 -i 36 -a 0 -x {0.0 5.0 -1 ------- null}
+ -t 0.942039800995025 -s 5 -d 4 -p ping -e 64 -c 0 -i 39 -a 0 -x {5.0 0.0 -1 ------- null}
- -t 0.942039800995025 -s 5 -d 4 -p ping -e 64 -c 0 -i 39 -a 0 -x {5.0 0.0 -1 ------- null}
h -t 0.942039800995025 -s 5 -d 4 -p ping -e 64 -c 0 -i 39 -a 0 -x {5.0 0.0 -1 ------- null}
r -t 0.943551800995025 -s 5 -d 4 -p ping -e 64 -c 0 -i 39 -a 0 -x {5.0 0.0 -1 ------- null}
+ -t 0.943551800995025 -s 4 -d 0 -p ping -e 64 -c 0 -i 39 -a 0 -x {5.0 0.0 -1 ------- null}
- -t 0.943551800995025 -s 4 -d 0 -p ping -e 64 -c 0 -i 39 -a 0 -x {5.0 0.0 -1 ------- null}
h -t 0.943551800995025 -s 4 -d 0 -p ping -e 64 -c 0 -i 39 -a 0 -x {5.0 0.0 -1 ------- null}
r -t 0.944552310447761 -s 4 -d 0 -p ping -e 64 -c 0 -i 39 -a 0 -x {5.0 0.0 -1 ------- null}
+ -t 1 -s 0 -d 4 -p ping -e 5000 -c 0 -i 40 -a 0 -x {0.0 5.0 -1 ------- null}
- -t 1 -s 0 -d 4 -p ping -e 5000 -c 0 -i 40 -a 0 -x {0.0 5.0 -1 ------- null}
h -t 1 -s 0 -d 4 -p ping -e 5000 -c 0 -i 40 -a 0 -x {0.0 5.0 -1 ------- null}
+ -t 1 -s 2 -d 4 -p ping -e 3000 -c 0 -i 41 -a 0 -x {2.0 3.0 -1 ------- null}
- -t 1 -s 2 -d 4 -p ping -e 3000 -c 0 -i 41 -a 0 -x {2.0 3.0 -1 ------- null}
h -t 1 -s 2 -d 4 -p ping -e 3000 -c 0 -i 41 -a 0 -x {2.0 3.0 -1 ------- null}
r -t 1.001012 -s 2 -d 4 -p ping -e 3000 -c 0 -i 41 -a 0 -x {2.0 3.0 -1 ------- null}
+ -t 1.001012 -s 4 -d 3 -p ping -e 3000 -c 0 -i 41 -a 0 -x {2.0 3.0 -1 ------- null}
- -t 1.001012 -s 4 -d 3 -p ping -e 3000 -c 0 -i 41 -a 0 -x {2.0 3.0 -1 ------- null}
h -t 1.001012 -s 4 -d 3 -p ping -e 3000 -c 0 -i 41 -a 0 -x {2.0 3.0 -1 ------- null}
r -t 1.00103980099502 -s 0 -d 4 -p ping -e 5000 -c 0 -i 40 -a 0 -x {0.0 5.0 -1 ------- null}
+ -t 1.00103980099502 -s 4 -d 5 -p ping -e 5000 -c 0 -i 40 -a 0 -x {0.0 5.0 -1 ------- null}
- -t 1.00103980099502 -s 4 -d 5 -p ping -e 5000 -c 0 -i 40 -a 0 -x {0.0 5.0 -1 ------- null}
h -t 1.00103980099502 -s 4 -d 5 -p ping -e 5000 -c 0 -i 40 -a 0 -x {0.0 5.0 -1 ------- null}
r -t 1.002132 -s 4 -d 3 -p ping -e 3000 -c 0 -i 41 -a 0 -x {2.0 3.0 -1 ------- null}
+ -t 1.002132 -s 3 -d 4 -p ping -e 64 -c 0 -i 42 -a 0 -x {3.0 2.0 -1 ------- null}
- -t 1.002132 -s 3 -d 4 -p ping -e 64 -c 0 -i 42 -a 0 -x {3.0 2.0 -1 ------- null}
h -t 1.002132 -s 3 -d 4 -p ping -e 64 -c 0 -i 42 -a 0 -x {3.0 2.0 -1 ------- null}