+ 0 0 4 ping 5000 ------- 0 0.0 5.0 -1 0
- 0 0 4 ping 5000 ------- 0 0.0 5.0 -1 0
+ 0 2 4 ping 3000 ------- 0 2.0 3.0 -1 1
- 0 2 4 ping 3000 ------- 0 2.0 3.0 -1 1
r 0.001012 2 4 ping 3000 ------- 0 2.0 3.0 -1 1
+ 0.001012 4 3 ping 3000 ------- 0 2.0 3.0 -1 1
- 0.001012 4 3 ping 3000 ------- 0 2.0 3.0 -1 1
r 0.00104 0 4 ping 5000 ------- 0 0.0 5.0 -1 0
+ 0.00104 4 5 ping 5000 ------- 0 0.0 5.0 -1 0
- 0.00104 4 5 ping 5000 ------- 0 0.0 5.0 -1 0
r 0.002132 4 3 ping 3000 ------- 0 2.0 3.0 -1 1
+ 0.002132 3 4 ping 64 ------- 0 3.0 2.0 -1 2
- 0.002132 3 4 ping 64 ------- 0 3.0 2.0 -1 2
r 0.003135 3 4 ping 64 ------- 0 3.0 2.0 -1 2
+ 0.003135 4 2 ping 64 ------- 0 3.0 2.0 -1 2
- 0.003135 4 2 ping 64 ------- 0 3.0 2.0 -1 2
r 0.004135 4 2 ping 64 ------- 0 3.0 2.0 -1 2
r 0.04204 4 5 ping 5000 ------- 0 0.0 5.0 -1 0
+ 0.04204 5 4 ping 64 ------- 0 5.0 0.0 -1 3
- 0.04204 5 4 ping 64 ------- 0 5.0 0.0 -1 3
r 0.043552 5 4 ping 64 ------- 0 5.0 0.0 -1 3
+ 0.043552 4 0 ping 64 ------- 0 5.0 0.0 -1 3
- 0.043552 4 0 ping 64 ------- 0 5.0 0.0 -1 3
r 0.044552 4 0 ping 64 ------- 0 5.0 0.0 -1 3
+ 0.1 0 4 ping 5000 ------- 0 0.0 5.0 -1 4
- 0.1 0 4 ping 5000 ------- 0 0.0 5.0 -1 4
+ 0.1 2 4 ping 3000 ------- 0 2.0 3.0 -1 5
- 0.1 2 4 ping 3000 ------- 0 2.0 3.0 -1 5
r 0.101012 2 4 ping 3000 ------- 0 2.0 3.0 -1 5
+ 0.101012 4 3 ping 3000 ------- 0 2.0 3.0 -1 5
- 0.101012 4 3 ping 3000 ------- 0 2.0 3.0 -1 5
r 0.10104 0 4 ping 5000 ------- 0 0.0 5.0 -1 4
+ 0.10104 4 5 ping 5000 ------- 0 0.0 5.0 -1 4
- 0.10104 4 5 ping 5000 ------- 0 0.0 5.0 -1 4
r 0.102132 4 3 ping 3000 ------- 0 2.0 3.0 -1 5
+ 0.102132 3 4 ping 64 ------- 0 3.0 2.0 -1 6
- 0.102132 3 4 ping 64 ------- 0 3.0 2.0 -1 6
r 0.103135 3 4 ping 64 ------- 0 3.0 2.0 -1 6
+ 0.103135 4 2 ping 64 ------- 0 3.0 2.0 -1 6
- 0.103135 4 2 ping 64 ------- 0 3.0 2.0 -1 6
r 0.104135 4 2 ping 64 ------- 0 3.0 2.0 -1 6
r 0.14204 4 5 ping 5000 ------- 0 0.0 5.0 -1 4
+ 0.14204 5 4 ping 64 ------- 0 5.0 0.0 -1 7
- 0.14204 5 4 ping 64 ------- 0 5.0 0.0 -1 7
r 0.143552 5 4 ping 64 ------- 0 5.0 0.0 -1 7
+ 0.143552 4 0 ping 64 ------- 0 5.0 0.0 -1 7
- 0.143552 4 0 ping 64 ------- 0 5.0 0.0 -1 7
r 0.144552 4 0 ping 64 ------- 0 5.0 0.0 -1 7
+ 0.2 0 4 ping 5000 ------- 0 0.0 5.0 -1 8
- 0.2 0 4 ping 5000 ------- 0 0.0 5.0 -1 8
+ 0.2 2 4 ping 3000 ------- 0 2.0 3.0 -1 9
- 0.2 2 4 ping 3000 ------- 0 2.0 3.0 -1 9
r 0.201012 2 4 ping 3000 ------- 0 2.0 3.0 -1 9
+ 0.201012 4 3 ping 3000 ------- 0 2.0 3.0 -1 9
- 0.201012 4 3 ping 3000 ------- 0 2.0 3.0 -1 9
r 0.20104 0 4 ping 5000 ------- 0 0.0 5.0 -1 8
+ 0.20104 4 5 ping 5000 ------- 0 0.0 5.0 -1 8
- 0.20104 4 5 ping 5000 ------- 0 0.0 5.0 -1 8
r 0.202132 4 3 ping 3000 ------- 0 2.0 3.0 -1 9
+ 0.202132 3 4 ping 64 ------- 0 3.0 2.0 -1 10
- 0.202132 3 4 ping 64 ------- 0 3.0 2.0 -1 10
r 0.203135 3 4 ping 64 ------- 0 3.0 2.0 -1 10
+ 0.203135 4 2 ping 64 ------- 0 3.0 2.0 -1 10
- 0.203135 4 2 ping 64 ------- 0 3.0 2.0 -1 10
r 0.204135 4 2 ping 64 ------- 0 3.0 2.0 -1 10
r 0.24204 4 5 ping 5000 ------- 0 0.0 5.0 -1 8
+ 0.24204 5 4 ping 64 ------- 0 5.0 0.0 -1 11
- 0.24204 5 4 ping 64 ------- 0 5.0 0.0 -1 11
r 0.243552 5 4 ping 64 ------- 0 5.0 0.0 -1 11
+ 0.243552 4 0 ping 64 ------- 0 5.0 0.0 -1 11
- 0.243552 4 0 ping 64 ------- 0 5.0 0.0 -1 11
r 0.244552 4 0 ping 64 ------- 0 5.0 0.0 -1 11
+ 0.3 0 4 ping 5000 ------- 0 0.0 5.0 -1 12
- 0.3 0 4 ping 5000 ------- 0 0.0 5.0 -1 12
+ 0.3 2 4 ping 3000 ------- 0 2.0 3.0 -1 13
- 0.3 2 4 ping 3000 ------- 0 2.0 3.0 -1 13
r 0.301012 2 4 ping 3000 ------- 0 2.0 3.0 -1 13
+ 0.301012 4 3 ping 3000 ------- 0 2.0 3.0 -1 13
- 0.301012 4 3 ping 3000 ------- 0 2.0 3.0 -1 13
r 0.30104 0 4 ping 5000 ------- 0 0.0 5.0 -1 12
+ 0.30104 4 5 ping 5000 ------- 0 0.0 5.0 -1 12
- 0.30104 4 5 ping 5000 ------- 0 0.0 5.0 -1 12
r 0.302132 4 3 ping 3000 ------- 0 2.0 3.0 -1 13
+ 0.302132 3 4 ping 64 ------- 0 3.0 2.0 -1 14
- 0.302132 3 4 ping 64 ------- 0 3.0 2.0 -1 14
r 0.303135 3 4 ping 64 ------- 0 3.0 2.0 -1 14
+ 0.303135 4 2 ping 64 ------- 0 3.0 2.0 -1 14
- 0.303135 4 2 ping 64 ------- 0 3.0 2.0 -1 14
r 0.304135 4 2 ping 64 ------- 0 3.0 2.0 -1 14
r 0.34204 4 5 ping 5000 ------- 0 0.0 5.0 -1 12
+ 0.34204 5 4 ping 64 ------- 0 5.0 0.0 -1 15
- 0.34204 5 4 ping 64 ------- 0 5.0 0.0 -1 15
r 0.343552 5 4 ping 64 ------- 0 5.0 0.0 -1 15
+ 0.343552 4 0 ping 64 ------- 0 5.0 0.0 -1 15
- 0.343552 4 0 ping 64 ------- 0 5.0 0.0 -1 15
r 0.344552 4 0 ping 64 ------- 0 5.0 0.0 -1 15
+ 0.4 0 4 ping 5000 ------- 0 0.0 5.0 -1 16
- 0.4 0 4 ping 5000 ------- 0 0.0 5.0 -1 16
+ 0.4 2 4 ping 3000 ------- 0 2.0 3.0 -1 17
- 0.4 2 4 ping 3000 ------- 0 2.0 3.0 -1 17
r 0.401012 2 4 ping 3000 ------- 0 2.0 3.0 -1 17
+ 0.401012 4 3 ping 3000 ------- 0 2.0 3.0 -1 17
- 0.401012 4 3 ping 3000 ------- 0 2.0 3.0 -1 17
r 0.40104 0 4 ping 5000 ------- 0 0.0 5.0 -1 16
+ 0.40104 4 5 ping 5000 ------- 0 0.0 5.0 -1 16
- 0.40104 4 5 ping 5000 ------- 0 0.0 5.0 -1 16
r 0.402132 4 3 ping 3000 ------- 0 2.0 3.0 -1 17
+ 0.402132 3 4 ping 64 ------- 0 3.0 2.0 -1 18
- 0.402132 3 4 ping 64 ------- 0 3.0 2.0 -1 18
r 0.403135 3 4 ping 64 ------- 0 3.0 2.0 -1 18
+ 0.403135 4 2 ping 64 ------- 0 3.0 2.0 -1 18
- 0.403135 4 2 ping 64 ------- 0 3.0 2.0 -1 18
r 0.404135 4 2 ping 64 ------- 0 3.0 2.0 -1 18
r 0.44204 4 5 ping 5000 ------- 0 0.0 5.0 -1 16
+ 0.44204 5 4 ping 64 ------- 0 5.0 0.0 -1 19
- 0.44204 5 4 ping 64 ------- 0 5.0 0.0 -1 19
r 0.443552 5 4 ping 64 ------- 0 5.0 0.0 -1 19
+ 0.443552 4 0 ping 64 ------- 0 5.0 0.0 -1 19
- 0.443552 4 0 ping 64 ------- 0 5.0 0.0 -1 19
r 0.444552 4 0 ping 64 ------- 0 5.0 0.0 -1 19
+ 0.5 0 4 ping 5000 ------- 0 0.0 5.0 -1 20
- 0.5 0 4 ping 5000 ------- 0 0.0 5.0 -1 20
+ 0.5 2 4 ping 3000 ------- 0 2.0 3.0 -1 21
- 0.5 2 4 ping 3000 ------- 0 2.0 3.0 -1 21
r 0.501012 2 4 ping 3000 ------- 0 2.0 3.0 -1 21
+ 0.501012 4 3 ping 3000 ------- 0 2.0 3.0 -1 21
- 0.501012 4 3 ping 3000 ------- 0 2.0 3.0 -1 21
r 0.50104 0 4 ping 5000 ------- 0 0.0 5.0 -1 20
+ 0.50104 4 5 ping 5000 ------- 0 0.0 5.0 -1 20
- 0.50104 4 5 ping 5000 ------- 0 0.0 5.0 -1 20
r 0.502132 4 3 ping 3000 ------- 0 2.0 3.0 -1 21
+ 0.502132 3 4 ping 64 ------- 0 3.0 2.0 -1 22
- 0.502132 3 4 ping 64 ------- 0 3.0 2.0 -1 22
r 0.503135 3 4 ping 64 ------- 0 3.0 2.0 -1 22
+ 0.503135 4 2 ping 64 ------- 0 3.0 2.0 -1 22
- 0.503135 4 2 ping 64 ------- 0 3.0 2.0 -1 22
r 0.504135 4 2 ping 64 ------- 0 3.0 2.0 -1 22
r 0.54204 4 5 ping 5000 ------- 0 0.0 5.0 -1 20
+ 0.54204 5 4 ping 64 ------- 0 5.0 0.0 -1 23
- 0.54204 5 4 ping 64 ------- 0 5.0 0.0 -1 23
r 0.543552 5 4 ping 64 ------- 0 5.0 0.0 -1 23
+ 0.543552 4 0 ping 64 ------- 0 5.0 0.0 -1 23
- 0.543552 4 0 ping 64 ------- 0 5.0 0.0 -1 23
r 0.544552 4 0 ping 64 ------- 0 5.0 0.0 -1 23
+ 0.6 0 4 ping 5000 ------- 0 0.0 5.0 -1 24
- 0.6 0 4 ping 5000 ------- 0 0.0 5.0 -1 24
+ 0.6 2 4 ping 3000 ------- 0 2.0 3.0 -1 25
- 0.6 2 4 ping 3000 ------- 0 2.0 3.0 -1 25
r 0.601012 2 4 ping 3000 ------- 0 2.0 3.0 -1 25
+ 0.601012 4 3 ping 3000 ------- 0 2.0 3.0 -1 25
- 0.601012 4 3 ping 3000 ------- 0 2.0 3.0 -1 25
r 0.60104 0 4 ping 5000 ------- 0 0.0 5.0 -1 24
+ 0.60104 4 5 ping 5000 ------- 0 0.0 5.0 -1 24
- 0.60104 4 5 ping 5000 ------- 0 0.0 5.0 -1 24
r 0.602132 4 3 ping 3000 ------- 0 2.0 3.0 -1 25
+ 0.602132 3 4 ping 64 ------- 0 3.0 2.0 -1 26
- 0.602132 3 4 ping 64 ------- 0 3.0 2.0 -1 26
r 0.603135 3 4 ping 64 ------- 0 3.0 2.0 -1 26
+ 0.603135 4 2 ping 64 ------- 0 3.0 2.0 -1 26
- 0.603135 4 2 ping 64 ------- 0 3.0 2.0 -1 26
r 0.604135 4 2 ping 64 ------- 0 3.0 2.0 -1 26
r 0.64204 4 5 ping 5000 ------- 0 0.0 5.0 -1 24
+ 0.64204 5 4 ping 64 ------- 0 5.0 0.0 -1 27
- 0.64204 5 4 ping 64 ------- 0 5.0 0.0 -1 27
r 0.643552 5 4 ping 64 ------- 0 5.0 0.0 -1 27
+ 0.643552 4 0 ping 64 ------- 0 5.0 0.0 -1 27
- 0.643552 4 0 ping 64 ------- 0 5.0 0.0 -1 27
r 0.644552 4 0 ping 64 ------- 0 5.0 0.0 -1 27
+ 0.7 0 4 ping 5000 ------- 0 0.0 5.0 -1 28
- 0.7 0 4 ping 5000 ------- 0 0.0 5.0 -1 28
+ 0.7 2 4 ping 3000 ------- 0 2.0 3.0 -1 29
- 0.7 2 4 ping 3000 ------- 0 2.0 3.0 -1 29
r 0.701012 2 4 ping 3000 ------- 0 2.0 3.0 -1 29
+ 0.701012 4 3 ping 3000 ------- 0 2.0 3.0 -1 29
- 0.701012 4 3 ping 3000 ------- 0 2.0 3.0 -1 29
r 0.70104 0 4 ping 5000 ------- 0 0.0 5.0 -1 28
+ 0.70104 4 5 ping 5000 ------- 0 0.0 5.0 -1 28
- 0.70104 4 5 ping 5000 ------- 0 0.0 5.0 -1 28
r 0.702132 4 3 ping 3000 ------- 0 2.0 3.0 -1 29
+ 0.702132 3 4 ping 64 ------- 0 3.0 2.0 -1 30
- 0.702132 3 4 ping 64 ------- 0 3.0 2.0 -1 30
r 0.703135 3 4 ping 64 ------- 0 3.0 2.0 -1 30
+ 0.703135 4 2 ping 64 ------- 0 3.0 2.0 -1 30
- 0.703135 4 2 ping 64 ------- 0 3.0 2.0 -1 30
r 0.704135 4 2 ping 64 ------- 0 3.0 2.0 -1 30
r 0.74204 4 5 ping 5000 ------- 0 0.0 5.0 -1 28
+ 0.74204 5 4 ping 64 ------- 0 5.0 0.0 -1 31
- 0.74204 5 4 ping 64 ------- 0 5.0 0.0 -1 31
r 0.743552 5 4 ping 64 ------- 0 5.0 0.0 -1 31
+ 0.743552 4 0 ping 64 ------- 0 5.0 0.0 -1 31
- 0.743552 4 0 ping 64 ------- 0 5.0 0.0 -1 31
r 0.744552 4 0 ping 64 ------- 0 5.0 0.0 -1 31
+ 0.8 0 4 ping 5000 ------- 0 0.0 5.0 -1 32
- 0.8 0 4 ping 5000 ------- 0 0.0 5.0 -1 32
+ 0.8 2 4 ping 3000 ------- 0 2.0 3.0 -1 33
- 0.8 2 4 ping 3000 ------- 0 2.0 3.0 -1 33
r 0.801012 2 4 ping 3000 ------- 0 2.0 3.0 -1 33
+ 0.801012 4 3 ping 3000 ------- 0 2.0 3.0 -1 33
- 0.801012 4 3 ping 3000 ------- 0 2.0 3.0 -1 33
r 0.80104 0 4 ping 5000 ------- 0 0.0 5.0 -1 32
+ 0.80104 4 5 ping 5000 ------- 0 0.0 5.0 -1 32
- 0.80104 4 5 ping 5000 ------- 0 0.0 5.0 -1 32
r 0.802132 4 3 ping 3000 ------- 0 2.0 3.0 -1 33
+ 0.802132 3 4 ping 64 ------- 0 3.0 2.0 -1 34
- 0.802132 3 4 ping 64 ------- 0 3.0 2.0 -1 34
r 0.803135 3 4 ping 64 ------- 0 3.0 2.0 -1 34
+ 0.803135 4 2 ping 64 ------- 0 3.0 2.0 -1 34
- 0.803135 4 2 ping 64 ------- 0 3.0 2.0 -1 34
r 0.804135 4 2 ping 64 ------- 0 3.0 2.0 -1 34
r 0.84204 4 5 ping 5000 ------- 0 0.0 5.0 -1 32
+ 0.84204 5 4 ping 64 ------- 0 5.0 0.0 -1 35
- 0.84204 5 4 ping 64 ------- 0 5.0 0.0 -1 35
r 0.843552 5 4 ping 64 ------- 0 5.0 0.0 -1 35
+ 0.843552 4 0 ping 64 ------- 0 5.0 0.0 -1 35
- 0.843552 4 0 ping 64 ------- 0 5.0 0.0 -1 35
r 0.844552 4 0 ping 64 ------- 0 5.0 0.0 -1 35
+ 0.9 0 4 ping 5000 ------- 0 0.0 5.0 -1 36
- 0.9 0 4 ping 5000 ------- 0 0.0 5.0 -1 36
+ 0.9 2 4 ping 3000 ------- 0 2.0 3.0 -1 37
- 0.9 2 4 ping 3000 ------- 0 2.0 3.0 -1 37
r 0.901012 2 4 ping 3000 ------- 0 2.0 3.0 -1 37
+ 0.901012 4 3 ping 3000 ------- 0 2.0 3.0 -1 37
- 0.901012 4 3 ping 3000 ------- 0 2.0 3.0 -1 37
r 0.90104 0 4 ping 5000 ------- 0 0.0 5.0 -1 36
+ 0.90104 4 5 ping 5000 ------- 0 0.0 5.0 -1 36
- 0.90104 4 5 ping 5000 ------- 0 0.0 5.0 -1 36
r 0.902132 4 3 ping 3000 ------- 0 2.0 3.0 -1 37
+ 0.902132 3 4 ping 64 ------- 0 3.0 2.0 -1 38
- 0.902132 3 4 ping 64 ------- 0 3.0 2.0 -1 38
r 0.903135 3 4 ping 64 ------- 0 3.0 2.0 -1 38
+ 0.903135 4 2 ping 64 ------- 0 3.0 2.0 -1 38
- 0.903135 4 2 ping 64 ------- 0 3.0 2.0 -1 38
r 0.904135 4 2 ping 64 ------- 0 3.0 2.0 -1 38
r 0.94204 4 5 ping 5000 ------- 0 0.0 5.0 -1 36
+ 0.94204 5 4 ping 64 ------- 0 5.0 0.0 -1 39
- 0.94204 5 4 ping 64 ------- 0 5.0 0.0 -1 39
r 0.943552 5 4 ping 64 ------- 0 5.0 0.0 -1 39
+ 0.943552 4 0 ping 64 ------- 0 5.0 0.0 -1 39
- 0.943552 4 0 ping 64 ------- 0 5.0 0.0 -1 39
r 0.944552 4 0 ping 64 ------- 0 5.0 0.0 -1 39
+ 1 0 4 ping 5000 ------- 0 0.0 5.0 -1 40
- 1 0 4 ping 5000 ------- 0 0.0 5.0 -1 40
+ 1 2 4 ping 3000 ------- 0 2.0 3.0 -1 41
- 1 2 4 ping 3000 ------- 0 2.0 3.0 -1 41
r 1.001012 2 4 ping 3000 ------- 0 2.0 3.0 -1 41
+ 1.001012 4 3 ping 3000 ------- 0 2.0 3.0 -1 41
- 1.001012 4 3 ping 3000 ------- 0 2.0 3.0 -1 41
r 1.00104 0 4 ping 5000 ------- 0 0.0 5.0 -1 40
+ 1.00104 4 5 ping 5000 ------- 0 0.0 5.0 -1 40
- 1.00104 4 5 ping 5000 ------- 0 0.0 5.0 -1 40
r 1.002132 4 3 ping 3000 ------- 0 2.0 3.0 -1 41
+ 1.002132 3 4 ping 64 ------- 0 3.0 2.0 -1 42
- 1.002132 3 4 ping 64 ------- 0 3.0 2.0 -1 42
r 1.003135 3 4 ping 64 ------- 0 3.0 2.0 -1 42
+ 1.003135 4 2 ping 64 ------- 0 3.0 2.0 -1 42
- 1.003135 4 2 ping 64 ------- 0 3.0 2.0 -1 42
r 1.004135 4 2 ping 64 ------- 0 3.0 2.0 -1 42
r 1.04204 4 5 ping 5000 ------- 0 0.0 5.0 -1 40
+ 1.04204 5 4 ping 64 ------- 0 5.0 0.0 -1 43
- 1.04204 5 4 ping 64 ------- 0 5.0 0.0 -1 43
r 1.043552 5 4 ping 64 ------- 0 5.0 0.0 -1 43
+ 1.043552 4 0 ping 64 ------- 0 5.0 0.0 -1 43
- 1.043552 4 0 ping 64 ------- 0 5.0 0.0 -1 43
r 1.044552 4 0 ping 64 ------- 0 5.0 0.0 -1 43
+ 1.1 0 4 ping 5000 ------- 0 0.0 5.0 -1 44
- 1.1 0 4 ping 5000 ------- 0 0.0 5.0 -1 44
+ 1.1 2 4 ping 3000 ------- 0 2.0 3.0 -1 45
- 1.1 2 4 ping 3000 ------- 0 2.0 3.0 -1 45
r 1.101012 2 4 ping 3000 ------- 0 2.0 3.0 -1 45
+ 1.101012 4 3 ping 3000 ------- 0 2.0 3.0 -1 45
- 1.101012 4 3 ping 3000 ------- 0 2.0 3.0 -1 45
r 1.10104 0 4 ping 5000 ------- 0 0.0 5.0 -1 44
+ 1.10104 4 5 ping 5000 ------- 0 0.0 5.0 -1 44
- 1.10104 4 5 ping 5000 ------- 0 0.0 5.0 -1 44
r 1.102132 4 3 ping 3000 ------- 0 2.0 3.0 -1 45
+ 1.102132 3 4 ping 64 ------- 0 3.0 2.0 -1 46
- 1.102132 3 4 ping 64 ------- 0 3.0 2.0 -1 46
r 1.103135 3 4 ping 64 ------- 0 3.0 2.0 -1 46
+ 1.103135 4 2 ping 64 ------- 0 3.0 2.0 -1 46
- 1.103135 4 2 ping 64 ------- 0 3.0 2.0 -1 46
r 1.104135 4 2 ping 64 ------- 0 3.0 2.0 -1 46
r 1.14204 4 5 ping 5000 ------- 0 0.0 5.0 -1 44
+ 1.14204 5 4 ping 64 ------- 0 5.0 0.0 -1 47
- 1.14204 5 4 ping 64 ------- 0 5.0 0.0 -1 47
r 1.143552 5 4 ping 64 ------- 0 5.0 0.0 -1 47
+ 1.143552 4 0 ping 64 ------- 0 5.0 0.0 -1 47
- 1.143552 4 0 ping 64 ------- 0 5.0 0.0 -1 47
r 1.144552 4 0 ping 64 ------- 0 5.0 0.0 -1 47
+ 1.2 0 4 ping 5000 ------- 0 0.0 5.0 -1 48
- 1.2 0 4 ping 5000 ------- 0 0.0 5.0 -1 48
+ 1.2 2 4 ping 3000 ------- 0 2.0 3.0 -1 49
- 1.2 2 4 ping 3000 ------- 0 2.0 3.0 -1 49
r 1.201012 2 4 ping 3000 ------- 0 2.0 3.0 -1 49
+ 1.201012 4 3 ping 3000 ------- 0 2.0 3.0 -1 49
- 1.201012 4 3 ping 3000 ------- 0 2.0 3.0 -1 49
r 1.20104 0 4 ping 5000 ------- 0 0.0 5.0 -1 48
+ 1.20104 4 5 ping 5000 ------- 0 0.0 5.0 -1 48
- 1.20104 4 5 ping 5000 ------- 0 0.0 5.0 -1 48
r 1.202132 4 3 ping 3000 ------- 0 2.0 3.0 -1 49
+ 1.202132 3 4 ping 64 ------- 0 3.0 2.0 -1 50
- 1.202132 3 4 ping 64 ------- 0 3.0 2.0 -1 50
r 1.203135 3 4 ping 64 ------- 0 3.0 2.0 -1 50
+ 1.203135 4 2 ping 64 ------- 0 3.0 2.0 -1 50
- 1.203135 4 2 ping 64 ------- 0 3.0 2.0 -1 50
r 1.204135 4 2 ping 64 ------- 0 3.0 2.0 -1 50
r 1.24204 4 5 ping 5000 ------- 0 0.0 5.0 -1 48
+ 1.24204 5 4 ping 64 ------- 0 5.0 0.0 -1 51
- 1.24204 5 4 ping 64 ------- 0 5.0 0.0 -1 51
r 1.243552 5 4 ping 64 ------- 0 5.0 0.0 -1 51
+ 1.243552 4 0 ping 64 ------- 0 5.0 0.0 -1 51
- 1.243552 4 0 ping 64 ------- 0 5.0 0.0 -1 51
r 1.244552 4 0 ping 64 ------- 0 5.0 0.0 -1 51
+ 1.3 0 4 ping 5000 ------- 0 0.0 5.0 -1 52
- 1.3 0 4 ping 5000 ------- 0 0.0 5.0 -1 52
+ 1.3 2 4 ping 3000 ------- 0 2.0 3.0 -1 53
- 1.3 2 4 ping 3000 ------- 0 2.0 3.0 -1 53
r 1.301012 2 4 ping 3000 ------- 0 2.0 3.0 -1 53
+ 1.301012 4 3 ping 3000 ------- 0 2.0 3.0 -1 53
- 1.301012 4 3 ping 3000 ------- 0 2.0 3.0 -1 53
r 1.30104 0 4 ping 5000 ------- 0 0.0 5.0 -1 52
+ 1.30104 4 5 ping 5000 ------- 0 0.0 5.0 -1 52
- 1.30104 4 5 ping 5000 ------- 0 0.0 5.0 -1 52
r 1.302132 4 3 ping 3000 ------- 0 2.0 3.0 -1 53
+ 1.302132 3 4 ping 64 ------- 0 3.0 2.0 -1 54
- 1.302132 3 4 ping 64 ------- 0 3.0 2.0 -1 54
r 1.303135 3 4 ping 64 ------- 0 3.0 2.0 -1 54
+ 1.303135 4 2 ping 64 ------- 0 3.0 2.0 -1 54
- 1.303135 4 2 ping 64 ------- 0 3.0 2.0 -1 54
r 1.304135 4 2 ping 64 ------- 0 3.0 2.0 -1 54
r 1.34204 4 5 ping 5000 ------- 0 0.0 5.0 -1 52
+ 1.34204 5 4 ping 64 ------- 0 5.0 0.0 -1 55
- 1.34204 5 4 ping 64 ------- 0 5.0 0.0 -1 55
r 1.343552 5 4 ping 64 ------- 0 5.0 0.0 -1 55
+ 1.343552 4 0 ping 64 ------- 0 5.0 0.0 -1 55
- 1.343552 4 0 ping 64 ------- 0 5.0 0.0 -1 55
r 1.344552 4 0 ping 64 ------- 0 5.0 0.0 -1 55
+ 1.4 0 4 ping 5000 ------- 0 0.0 5.0 -1 56
- 1.4 0 4 ping 5000 ------- 0 0.0 5.0 -1 56
+ 1.4 2 4 ping 3000 ------- 0 2.0 3.0 -1 57
- 1.4 2 4 ping 3000 ------- 0 2.0 3.0 -1 57
r 1.401012 2 4 ping 3000 ------- 0 2.0 3.0 -1 57
+ 1.401012 4 3 ping 3000 ------- 0 2.0 3.0 -1 57
- 1.401012 4 3 ping 3000 ------- 0 2.0 3.0 -1 57
r 1.40104 0 4 ping 5000 ------- 0 0.0 5.0 -1 56
+ 1.40104 4 5 ping 5000 ------- 0 0.0 5.0 -1 56
- 1.40104 4 5 ping 5000 ------- 0 0.0 5.0 -1 56
r 1.402132 4 3 ping 3000 ------- 0 2.0 3.0 -1 57
+ 1.402132 3 4 ping 64 ------- 0 3.0 2.0 -1 58
- 1.402132 3 4 ping 64 ------- 0 3.0 2.0 -1 58
r 1.403135 3 4 ping 64 ------- 0 3.0 2.0 -1 58
+ 1.403135 4 2 ping 64 ------- 0 3.0 2.0 -1 58
- 1.403135 4 2 ping 64 ------- 0 3.0 2.0 -1 58
r 1.404135 4 2 ping 64 ------- 0 3.0 2.0 -1 58
r 1.44204 4 5 ping 5000 ------- 0 0.0 5.0 -1 56
+ 1.44204 5 4 ping 64 ------- 0 5.0 0.0 -1 59
- 1.44204 5 4 ping 64 ------- 0 5.0 0.0 -1 59
r 1.443552 5 4 ping 64 ------- 0 5.0 0.0 -1 59
+ 1.443552 4 0 ping 64 ------- 0 5.0 0.0 -1 59
- 1.443552 4 0 ping 64 ------- 0 5.0 0.0 -1 59
r 1.444552 4 0 ping 64 ------- 0 5.0 0.0 -1 59
+ 1.5 0 4 ping 5000 ------- 0 0.0 5.0 -1 60
- 1.5 0 4 ping 5000 ------- 0 0.0 5.0 -1 60
+ 1.5 2 4 ping 3000 ------- 0 2.0 3.0 -1 61
- 1.5 2 4 ping 3000 ------- 0 2.0 3.0 -1 61
r 1.501012 2 4 ping 3000 ------- 0 2.0 3.0 -1 61
+ 1.501012 4 3 ping 3000 ------- 0 2.0 3.0 -1 61
- 1.501012 4 3 ping 3000 ------- 0 2.0 3.0 -1 61
r 1.50104 0 4 ping 5000 ------- 0 0.0 5.0 -1 60
+ 1.50104 4 5 ping 5000 ------- 0 0.0 5.0 -1 60
- 1.50104 4 5 ping 5000 ------- 0 0.0 5.0 -1 60
r 1.502132 4 3 ping 3000 ------- 0 2.0 3.0 -1 61
+ 1.502132 3 4 ping 64 ------- 0 3.0 2.0 -1 62
- 1.502132 3 4 ping 64 ------- 0 3.0 2.0 -1 62
r 1.503135 3 4 ping 64 ------- 0 3.0 2.0 -1 62
+ 1.503135 4 2 ping 64 ------- 0 3.0 2.0 -1 62
- 1.503135 4 2 ping 64 ------- 0 3.0 2.0 -1 62
r 1.504135 4 2 ping 64 ------- 0 3.0 2.0 -1 62
r 1.54204 4 5 ping 5000 ------- 0 0.0 5.0 -1 60
+ 1.54204 5 4 ping 64 ------- 0 5.0 0.0 -1 63
- 1.54204 5 4 ping 64 ------- 0 5.0 0.0 -1 63
r 1.543552 5 4 ping 64 ------- 0 5.0 0.0 -1 63
+ 1.543552 4 0 ping 64 ------- 0 5.0 0.0 -1 63
- 1.543552 4 0 ping 64 ------- 0 5.0 0.0 -1 63
r 1.544552 4 0 ping 64 ------- 0 5.0 0.0 -1 63
+ 1.6 0 4 ping 5000 ------- 0 0.0 5.0 -1 64
- 1.6 0 4 ping 5000 ------- 0 0.0 5.0 -1 64
+ 1.6 2 4 ping 3000 ------- 0 2.0 3.0 -1 65
- 1.6 2 4 ping 3000 ------- 0 2.0 3.0 -1 65
r 1.601012 2 4 ping 3000 ------- 0 2.0 3.0 -1 65
+ 1.601012 4 3 ping 3000 ------- 0 2.0 3.0 -1 65
- 1.601012 4 3 ping 3000 ------- 0 2.0 3.0 -1 65
r 1.60104 0 4 ping 5000 ------- 0 0.0 5.0 -1 64
+ 1.60104 4 5 ping 5000 ------- 0 0.0 5.0 -1 64
- 1.60104 4 5 ping 5000 ------- 0 0.0 5.0 -1 64
r 1.602132 4 3 ping 3000 ------- 0 2.0 3.0 -1 65
+ 1.602132 3 4 ping 64 ------- 0 3.0 2.0 -1 66
- 1.602132 3 4 ping 64 ------- 0 3.0 2.0 -1 66
r 1.603135 3 4 ping 64 ------- 0 3.0 2.0 -1 66
+ 1.603135 4 2 ping 64 ------- 0 3.0 2.0 -1 66
- 1.603135 4 2 ping 64 ------- 0 3.0 2.0 -1 66
r 1.604135 4 2 ping 64 ------- 0 3.0 2.0 -1 66
r 1.64204 4 5 ping 5000 ------- 0 0.0 5.0 -1 64
+ 1.64204 5 4 ping 64 ------- 0 5.0 0.0 -1 67
- 1.64204 5 4 ping 64 ------- 0 5.0 0.0 -1 67
r 1.643552 5 4 ping 64 ------- 0 5.0 0.0 -1 67
+ 1.643552 4 0 ping 64 ------- 0 5.0 0.0 -1 67
- 1.643552 4 0 ping 64 ------- 0 5.0 0.0 -1 67
r 1.644552 4 0 ping 64 ------- 0 5.0 0.0 -1 67
+ 1.7 0 4 ping 5000 ------- 0 0.0 5.0 -1 68
- 1.7 0 4 ping 5000 ------- 0 0.0 5.0 -1 68
+ 1.7 2 4 ping 3000 ------- 0 2.0 3.0 -1 69
- 1.7 2 4 ping 3000 ------- 0 2.0 3.0 -1 69
r 1.701012 2 4 ping 3000 ------- 0 2.0 3.0 -1 69
+ 1.701012 4 3 ping 3000 ------- 0 2.0 3.0 -1 69
- 1.701012 4 3 ping 3000 ------- 0 2.0 3.0 -1 69
r 1.70104 0 4 ping 5000 ------- 0 0.0 5.0 -1 68
+ 1.70104 4 5 ping 5000 ------- 0 0.0 5.0 -1 68
- 1.70104 4 5 ping 5000 ------- 0 0.0 5.0 -1 68
r 1.702132 4 3 ping 3000 ------- 0 2.0 3.0 -1 69
+ 1.702132 3 4 ping 64 ------- 0 3.0 2.0 -1 70
- 1.702132 3 4 ping 64 ------- 0 3.0 2.0 -1 70
r 1.703135 3 4 ping 64 ------- 0 3.0 2.0 -1 70
+ 1.703135 4 2 ping 64 ------- 0 3.0 2.0 -1 70
- 1.703135 4 2 ping 64 ------- 0 3.0 2.0 -1 70
r 1.704135 4 2 ping 64 ------- 0 3.0 2.0 -1 70
r 1.74204 4 5 ping 5000 ------- 0 0.0 5.0 -1 68
+ 1.74204 5 4 ping 64 ------- 0 5.0 0.0 -1 71
- 1.74204 5 4 ping 64 ------- 0 5.0 0.0 -1 71
r 1.743552 5 4 ping 64 ------- 0 5.0 0.0 -1 71
+ 1.743552 4 0 ping 64 ------- 0 5.0 0.0 -1 71
- 1.743552 4 0 ping 64 ------- 0 5.0 0.0 -1 71
r 1.744552 4 0 ping 64 ------- 0 5.0 0.0 -1 71
+ 1.8 0 4 ping 5000 ------- 0 0.0 5.0 -1 72
- 1.8 0 4 ping 5000 ------- 0 0.0 5.0 -1 72
+ 1.8 2 4 ping 3000 ------- 0 2.0 3.0 -1 73
- 1.8 2 4 ping 3000 ------- 0 2.0 3.0 -1 73
r 1.801012 2 4 ping 3000 ------- 0 2.0 3.0 -1 73
+ 1.801012 4 3 ping 3000 ------- 0 2.0 3.0 -1 73
- 1.801012 4 3 ping 3000 ------- 0 2.0 3.0 -1 73
r 1.80104 0 4 ping 5000 ------- 0 0.0 5.0 -1 72
+ 1.80104 4 5 ping 5000 ------- 0 0.0 5.0 -1 72
- 1.80104 4 5 ping 5000 ------- 0 0.0 5.0 -1 72
r 1.802132 4 3 ping 3000 ------- 0 2.0 3.0 -1 73
+ 1.802132 3 4 ping 64 ------- 0 3.0 2.0 -1 74
- 1.802132 3 4 ping 64 ------- 0 3.0 2.0 -1 74
r 1.803135 3 4 ping 64 ------- 0 3.0 2.0 -1 74
+ 1.803135 4 2 ping 64 ------- 0 3.0 2.0 -1 74
- 1.803135 4 2 ping 64 ------- 0 3.0 2.0 -1 74
r 1.804135 4 2 ping 64 ------- 0 3.0 2.0 -1 74
r 1.84204 4 5 ping 5000 ------- 0 0.0 5.0 -1 72
+ 1.84204 5 4 ping 64 ------- 0 5.0 0.0 -1 75
- 1.84204 5 4 ping 64 ------- 0 5.0 0.0 -1 75
r 1.843552 5 4 ping 64 ------- 0 5.0 0.0 -1 75
+ 1.843552 4 0 ping 64 ------- 0 5.0 0.0 -1 75
- 1.843552 4 0 ping 64 ------- 0 5.0 0.0 -1 75
r 1.844552 4 0 ping 64 ------- 0 5.0 0.0 -1 75
+ 1.9 0 4 ping 5000 ------- 0 0.0 5.0 -1 76
- 1.9 0 4 ping 5000 ------- 0 0.0 5.0 -1 76
+ 1.9 2 4 ping 3000 ------- 0 2.0 3.0 -1 77
- 1.9 2 4 ping 3000 ------- 0 2.0 3.0 -1 77
r 1.901012 2 4 ping 3000 ------- 0 2.0 3.0 -1 77
+ 1.901012 4 3 ping 3000 ------- 0 2.0 3.0 -1 77
- 1.901012 4 3 ping 3000 ------- 0 2.0 3.0 -1 77
r 1.90104 0 4 ping 5000 ------- 0 0.0 5.0 -1 76
+ 1.90104 4 5 ping 5000 ------- 0 0.0 5.0 -1 76
- 1.90104 4 5 ping 5000 ------- 0 0.0 5.0 -1 76
r 1.902132 4 3 ping 3000 ------- 0 2.0 3.0 -1 77
+ 1.902132 3 4 ping 64 ------- 0 3.0 2.0 -1 78
- 1.902132 3 4 ping 64 ------- 0 3.0 2.0 -1 78
r 1.903135 3 4 ping 64 ------- 0 3.0 2.0 -1 78
+ 1.903135 4 2 ping 64 ------- 0 3.0 2.0 -1 78
- 1.903135 4 2 ping 64 ------- 0 3.0 2.0 -1 78
r 1.904135 4 2 ping 64 ------- 0 3.0 2.0 -1 78
r 1.94204 4 5 ping 5000 ------- 0 0.0 5.0 -1 76
+ 1.94204 5 4 ping 64 ------- 0 5.0 0.0 -1 79
- 1.94204 5 4 ping 64 ------- 0 5.0 0.0 -1 79
r 1.943552 5 4 ping 64 ------- 0 5.0 0.0 -1 79
+ 1.943552 4 0 ping 64 ------- 0 5.0 0.0 -1 79
- 1.943552 4 0 ping 64 ------- 0 5.0 0.0 -1 79
r 1.944552 4 0 ping 64 ------- 0 5.0 0.0 -1 79
+ 2 0 4 ping 5000 ------- 0 0.0 5.0 -1 80
- 2 0 4 ping 5000 ------- 0 0.0 5.0 -1 80
+ 2 2 4 ping 3000 ------- 0 2.0 3.0 -1 81
- 2 2 4 ping 3000 ------- 0 2.0 3.0 -1 81
r 2.001012 2 4 ping 3000 ------- 0 2.0 3.0 -1 81
+ 2.001012 4 3 ping 3000 ------- 0 2.0 3.0 -1 81
- 2.001012 4 3 ping 3000 ------- 0 2.0 3.0 -1 81
r 2.00104 0 4 ping 5000 ------- 0 0.0 5.0 -1 80
+ 2.00104 4 5 ping 5000 ------- 0 0.0 5.0 -1 80
- 2.00104 4 5 ping 5000 ------- 0 0.0 5.0 -1 80
r 2.002132 4 3 ping 3000 ------- 0 2.0 3.0 -1 81
+ 2.002132 3 4 ping 64 ------- 0 3.0 2.0 -1 82
- 2.002132 3 4 ping 64 ------- 0 3.0 2.0 -1 82
r 2.003135 3 4 ping 64 ------- 0 3.0 2.0 -1 82
+ 2.003135 4 2 ping 64 ------- 0 3.0 2.0 -1 82
- 2.003135 4 2 ping 64 ------- 0 3.0 2.0 -1 82
r 2.004135 4 2 ping 64 ------- 0 3.0 2.0 -1 82
r 2.04204 4 5 ping 5000 ------- 0 0.0 5.0 -1 80
+ 2.04204 5 4 ping 64 ------- 0 5.0 0.0 -1 83
- 2.04204 5 4 ping 64 ------- 0 5.0 0.0 -1 83
r 2.043552 5 4 ping 64 ------- 0 5.0 0.0 -1 83
+ 2.043552 4 0 ping 64 ------- 0 5.0 0.0 -1 83
- 2.043552 4 0 ping 64 ------- 0 5.0 0.0 -1 83
r 2.044552 4 0 ping 64 ------- 0 5.0 0.0 -1 83
+ 2.1 0 4 ping 5000 ------- 0 0.0 5.0 -1 84
- 2.1 0 4 ping 5000 ------- 0 0.0 5.0 -1 84
+ 2.1 2 4 ping 3000 ------- 0 2.0 3.0 -1 85
- 2.1 2 4 ping 3000 ------- 0 2.0 3.0 -1 85
r 2.101012 2 4 ping 3000 ------- 0 2.0 3.0 -1 85
+ 2.101012 4 3 ping 3000 ------- 0 2.0 3.0 -1 85
- 2.101012 4 3 ping 3000 ------- 0 2.0 3.0 -1 85
r 2.10104 0 4 ping 5000 ------- 0 0.0 5.0 -1 84
+ 2.10104 4 5 ping 5000 ------- 0 0.0 5.0 -1 84
- 2.10104 4 5 ping 5000 ------- 0 0.0 5.0 -1 84
r 2.102132 4 3 ping 3000 ------- 0 2.0 3.0 -1 85
+ 2.102132 3 4 ping 64 ------- 0 3.0 2.0 -1 86
- 2.102132 3 4 ping 64 ------- 0 3.0 2.0 -1 86
r 2.103135 3 4 ping 64 ------- 0 3.0 2.0 -1 86
+ 2.103135 4 2 ping 64 ------- 0 3.0 2.0 -1 86
- 2.103135 4 2 ping 64 ------- 0 3.0 2.0 -1 86
r 2.104135 4 2 ping 64 ------- 0 3.0 2.0 -1 86
r 2.14204 4 5 ping 5000 ------- 0 0.0 5.0 -1 84
+ 2.14204 5 4 ping 64 ------- 0 5.0 0.0 -1 87
- 2.14204 5 4 ping 64 ------- 0 5.0 0.0 -1 87
r 2.143552 5 4 ping 64 ------- 0 5.0 0.0 -1 87
+ 2.143552 4 0 ping 64 ------- 0 5.0 0.0 -1 87
- 2.143552 4 0 ping 64 ------- 0 5.0 0.0 -1 87
r 2.144552 4 0 ping 64 ------- 0 5.0 0.0 -1 87
+ 2.2 0 4 ping 5000 ------- 0 0.0 5.0 -1 88
- 2.2 0 4 ping 5000 ------- 0 0.0 5.0 -1 88
+ 2.2 2 4 ping 3000 ------- 0 2.0 3.0 -1 89
- 2.2 2 4 ping 3000 ------- 0 2.0 3.0 -1 89
r 2.201012 2 4 ping 3000 ------- 0 2.0 3.0 -1 89
+ 2.201012 4 3 ping 3000 ------- 0 2.0 3.0 -1 89
- 2.201012 4 3 ping 3000 ------- 0 2.0 3.0 -1 89
r 2.20104 0 4 ping 5000 ------- 0 0.0 5.0 -1 88
+ 2.20104 4 5 ping 5000 ------- 0 0.0 5.0 -1 88
- 2.20104 4 5 ping 5000 ------- 0 0.0 5.0 -1 88
r 2.202132 4 3 ping 3000 ------- 0 2.0 3.0 -1 89
+ 2.202132 3 4 ping 64 ------- 0 3.0 2.0 -1 90
- 2.202132 3 4 ping 64 ------- 0 3.0 2.0 -1 90
r 2.203135 3 4 ping 64 ------- 0 3.0 2.0 -1 90
+ 2.203135 4 2 ping 64 ------- 0 3.0 2.0 -1 90
- 2.203135 4 2 ping 64 ------- 0 3.0 2.0 -1 90
r 2.204135 4 2 ping 64 ------- 0 3.0 2.0 -1 90
r 2.24204 4 5 ping 5000 ------- 0 0.0 5.0 -1 88
+ 2.24204 5 4 ping 64 ------- 0 5.0 0.0 -1 91
- 2.24204 5 4 ping 64 ------- 0 5.0 0.0 -1 91
r 2.243552 5 4 ping 64 ------- 0 5.0 0.0 -1 91
+ 2.243552 4 0 ping 64 ------- 0 5.0 0.0 -1 91
- 2.243552 4 0 ping 64 ------- 0 5.0 0.0 -1 91
r 2.244552 4 0 ping 64 ------- 0 5.0 0.0 -1 91
+ 2.3 0 4 ping 5000 ------- 0 0.0 5.0 -1 92
- 2.3 0 4 ping 5000 ------- 0 0.0 5.0 -1 92
+ 2.3 2 4 ping 3000 ------- 0 2.0 3.0 -1 93
- 2.3 2 4 ping 3000 ------- 0 2.0 3.0 -1 93
r 2.301012 2 4 ping 3000 ------- 0 2.0 3.0 -1 93
+ 2.301012 4 3 ping 3000 ------- 0 2.0 3.0 -1 93
- 2.301012 4 3 ping 3000 ------- 0 2.0 3.0 -1 93
r 2.30104 0 4 ping 5000 ------- 0 0.0 5.0 -1 92
+ 2.30104 4 5 ping 5000 ------- 0 0.0 5.0 -1 92
- 2.30104 4 5 ping 5000 ------- 0 0.0 5.0 -1 92
r 2.302132 4 3 ping 3000 ------- 0 2.0 3.0 -1 93
+ 2.302132 3 4 ping 64 ------- 0 3.0 2.0 -1 94
- 2.302132 3 4 ping 64 ------- 0 3.0 2.0 -1 94
r 2.303135 3 4 ping 64 ------- 0 3.0 2.0 -1 94
+ 2.303135 4 2 ping 64 ------- 0 3.0 2.0 -1 94
- 2.303135 4 2 ping 64 ------- 0 3.0 2.0 -1 94
r 2.304135 4 2 ping 64 ------- 0 3.0 2.0 -1 94
r 2.34204 4 5 ping 5000 ------- 0 0.0 5.0 -1 92
+ 2.34204 5 4 ping 64 ------- 0 5.0 0.0 -1 95
- 2.34204 5 4 ping 64 ------- 0 5.0 0.0 -1 95
r 2.343552 5 4 ping 64 ------- 0 5.0 0.0 -1 95
+ 2.343552 4 0 ping 64 ------- 0 5.0 0.0 -1 95
- 2.343552 4 0 ping 64 ------- 0 5.0 0.0 -1 95
r 2.344552 4 0 ping 64 ------- 0 5.0 0.0 -1 95
+ 2.4 0 4 ping 5000 ------- 0 0.0 5.0 -1 96
- 2.4 0 4 ping 5000 ------- 0 0.0 5.0 -1 96
+ 2.4 2 4 ping 3000 ------- 0 2.0 3.0 -1 97
- 2.4 2 4 ping 3000 ------- 0 2.0 3.0 -1 97
r 2.401012 2 4 ping 3000 ------- 0 2.0 3.0 -1 97
+ 2.401012 4 3 ping 3000 ------- 0 2.0 3.0 -1 97
- 2.401012 4 3 ping 3000 ------- 0 2.0 3.0 -1 97
r 2.40104 0 4 ping 5000 ------- 0 0.0 5.0 -1 96
+ 2.40104 4 5 ping 5000 ------- 0 0.0 5.0 -1 96
- 2.40104 4 5 ping 5000 ------- 0 0.0 5.0 -1 96
r 2.402132 4 3 ping 3000 ------- 0 2.0 3.0 -1 97
+ 2.402132 3 4 ping 64 ------- 0 3.0 2.0 -1 98
- 2.402132 3 4 ping 64 ------- 0 3.0 2.0 -1 98
r 2.403135 3 4 ping 64 ------- 0 3.0 2.0 -1 98
+ 2.403135 4 2 ping 64 ------- 0 3.0 2.0 -1 98
- 2.403135 4 2 ping 64 ------- 0 3.0 2.0 -1 98
r 2.404135 4 2 ping 64 ------- 0 3.0 2.0 -1 98
r 2.44204 4 5 ping 5000 ------- 0 0.0 5.0 -1 96
+ 2.44204 5 4 ping 64 ------- 0 5.0 0.0 -1 99
- 2.44204 5 4 ping 64 ------- 0 5.0 0.0 -1 99
r 2.443552 5 4 ping 64 ------- 0 5.0 0.0 -1 99
+ 2.443552 4 0 ping 64 ------- 0 5.0 0.0 -1 99
- 2.443552 4 0 ping 64 ------- 0 5.0 0.0 -1 99
r 2.444552 4 0 ping 64 ------- 0 5.0 0.0 -1 99
+ 2.5 0 4 ping 5000 ------- 0 0.0 5.0 -1 100
- 2.5 0 4 ping 5000 ------- 0 0.0 5.0 -1 100
+ 2.5 2 4 ping 3000 ------- 0 2.0 3.0 -1 101
- 2.5 2 4 ping 3000 ------- 0 2.0 3.0 -1 101
r 2.501012 2 4 ping 3000 ------- 0 2.0 3.0 -1 101
+ 2.501012 4 3 ping 3000 ------- 0 2.0 3.0 -1 101
- 2.501012 4 3 ping 3000 ------- 0 2.0 3.0 -1 101
r 2.50104 0 4 ping 5000 ------- 0 0.0 5.0 -1 100
+ 2.50104 4 5 ping 5000 ------- 0 0.0 5.0 -1 100
- 2.50104 4 5 ping 5000 ------- 0 0.0 5.0 -1 100
r 2.502132 4 3 ping 3000 ------- 0 2.0 3.0 -1 101
+ 2.502132 3 4 ping 64 ------- 0 3.0 2.0 -1 102
- 2.502132 3 4 ping 64 ------- 0 3.0 2.0 -1 102
r 2.503135 3 4 ping 64 ------- 0 3.0 2.0 -1 102
+ 2.503135 4 2 ping 64 ------- 0 3.0 2.0 -1 102
- 2.503135 4 2 ping 64 ------- 0 3.0 2.0 -1 102
r 2.504135 4 2 ping 64 ------- 0 3.0 2.0 -1 102
r 2.54204 4 5 ping 5000 ------- 0 0.0 5.0 -1 100
+ 2.54204 5 4 ping 64 ------- 0 5.0 0.0 -1 103
- 2.54204 5 4 ping 64 ------- 0 5.0 0.0 -1 103
r 2.543552 5 4 ping 64 ------- 0 5.0 0.0 -1 103
+ 2.543552 4 0 ping 64 ------- 0 5.0 0.0 -1 103
- 2.543552 4 0 ping 64 ------- 0 5.0 0.0 -1 103
r 2.544552 4 0 ping 64 ------- 0 5.0 0.0 -1 103
+ 2.6 0 4 ping 5000 ------- 0 0.0 5.0 -1 104
- 2.6 0 4 ping 5000 ------- 0 0.0 5.0 -1 104
+ 2.6 2 4 ping 3000 ------- 0 2.0 3.0 -1 105
- 2.6 2 4 ping 3000 ------- 0 2.0 3.0 -1 105
r 2.601012 2 4 ping 3000 ------- 0 2.0 3.0 -1 105
+ 2.601012 4 3 ping 3000 ------- 0 2.0 3.0 -1 105
- 2.601012 4 3 ping 3000 ------- 0 2.0 3.0 -1 105
r 2.60104 0 4 ping 5000 ------- 0 0.0 5.0 -1 104
+ 2.60104 4 5 ping 5000 ------- 0 0.0 5.0 -1 104
- 2.60104 4 5 ping 5000 ------- 0 0.0 5.0 -1 104
r 2.602132 4 3 ping 3000 ------- 0 2.0 3.0 -1 105
+ 2.602132 3 4 ping 64 ------- 0 3.0 2.0 -1 106
- 2.602132 3 4 ping 64 ------- 0 3.0 2.0 -1 106
r 2.603135 3 4 ping 64 ------- 0 3.0 2.0 -1 106
+ 2.603135 4 2 ping 64 ------- 0 3.0 2.0 -1 106
- 2.603135 4 2 ping 64 ------- 0 3.0 2.0 -1 106