+ 0.1 0 2 cbr 500 ------- 0 0.0 3.0 0 0
- 0.1 0 2 cbr 500 ------- 0 0.0 3.0 0 0
r 0.10102 0 2 cbr 500 ------- 0 0.0 3.0 0 0
+ 0.10102 2 3 cbr 500 ------- 0 0.0 3.0 0 0
- 0.10102 2 3 cbr 500 ------- 0 0.0 3.0 0 0
+ 0.105 0 2 cbr 500 ------- 0 0.0 3.0 1 1
- 0.105 0 2 cbr 500 ------- 0 0.0 3.0 1 1
r 0.10602 2 3 cbr 500 ------- 0 0.0 3.0 0 0
r 0.10602 0 2 cbr 500 ------- 0 0.0 3.0 1 1
+ 0.10602 2 3 cbr 500 ------- 0 0.0 3.0 1 1
- 0.10602 2 3 cbr 500 ------- 0 0.0 3.0 1 1
+ 0.11 0 2 cbr 500 ------- 0 0.0 3.0 2 2
- 0.11 0 2 cbr 500 ------- 0 0.0 3.0 2 2
r 0.11102 2 3 cbr 500 ------- 0 0.0 3.0 1 1
r 0.11102 0 2 cbr 500 ------- 0 0.0 3.0 2 2
+ 0.11102 2 3 cbr 500 ------- 0 0.0 3.0 2 2
- 0.11102 2 3 cbr 500 ------- 0 0.0 3.0 2 2
+ 0.115 0 2 cbr 500 ------- 0 0.0 3.0 3 3
- 0.115 0 2 cbr 500 ------- 0 0.0 3.0 3 3
r 0.11602 2 3 cbr 500 ------- 0 0.0 3.0 2 2
r 0.11602 0 2 cbr 500 ------- 0 0.0 3.0 3 3
+ 0.11602 2 3 cbr 500 ------- 0 0.0 3.0 3 3
- 0.11602 2 3 cbr 500 ------- 0 0.0 3.0 3 3
+ 0.12 0 2 cbr 500 ------- 0 0.0 3.0 4 4
- 0.12 0 2 cbr 500 ------- 0 0.0 3.0 4 4
r 0.12102 2 3 cbr 500 ------- 0 0.0 3.0 3 3
r 0.12102 0 2 cbr 500 ------- 0 0.0 3.0 4 4
+ 0.12102 2 3 cbr 500 ------- 0 0.0 3.0 4 4
- 0.12102 2 3 cbr 500 ------- 0 0.0 3.0 4 4
+ 0.125 0 2 cbr 500 ------- 0 0.0 3.0 5 5
- 0.125 0 2 cbr 500 ------- 0 0.0 3.0 5 5
r 0.12602 2 3 cbr 500 ------- 0 0.0 3.0 4 4
r 0.12602 0 2 cbr 500 ------- 0 0.0 3.0 5 5
+ 0.12602 2 3 cbr 500 ------- 0 0.0 3.0 5 5
- 0.12602 2 3 cbr 500 ------- 0 0.0 3.0 5 5
+ 0.13 0 2 cbr 500 ------- 0 0.0 3.0 6 6
- 0.13 0 2 cbr 500 ------- 0 0.0 3.0 6 6
r 0.13102 2 3 cbr 500 ------- 0 0.0 3.0 5 5
r 0.13102 0 2 cbr 500 ------- 0 0.0 3.0 6 6
+ 0.13102 2 3 cbr 500 ------- 0 0.0 3.0 6 6
- 0.13102 2 3 cbr 500 ------- 0 0.0 3.0 6 6
+ 0.135 0 2 cbr 500 ------- 0 0.0 3.0 7 7
- 0.135 0 2 cbr 500 ------- 0 0.0 3.0 7 7
r 0.13602 2 3 cbr 500 ------- 0 0.0 3.0 6 6
r 0.13602 0 2 cbr 500 ------- 0 0.0 3.0 7 7
+ 0.13602 2 3 cbr 500 ------- 0 0.0 3.0 7 7
- 0.13602 2 3 cbr 500 ------- 0 0.0 3.0 7 7
+ 0.14 0 2 cbr 500 ------- 0 0.0 3.0 8 8
- 0.14 0 2 cbr 500 ------- 0 0.0 3.0 8 8
r 0.14102 2 3 cbr 500 ------- 0 0.0 3.0 7 7
r 0.14102 0 2 cbr 500 ------- 0 0.0 3.0 8 8
+ 0.14102 2 3 cbr 500 ------- 0 0.0 3.0 8 8
- 0.14102 2 3 cbr 500 ------- 0 0.0 3.0 8 8
+ 0.145 0 2 cbr 500 ------- 0 0.0 3.0 9 9
- 0.145 0 2 cbr 500 ------- 0 0.0 3.0 9 9
r 0.14602 2 3 cbr 500 ------- 0 0.0 3.0 8 8
r 0.14602 0 2 cbr 500 ------- 0 0.0 3.0 9 9
+ 0.14602 2 3 cbr 500 ------- 0 0.0 3.0 9 9
- 0.14602 2 3 cbr 500 ------- 0 0.0 3.0 9 9
+ 0.15 0 2 cbr 500 ------- 0 0.0 3.0 10 10
- 0.15 0 2 cbr 500 ------- 0 0.0 3.0 10 10
r 0.15102 2 3 cbr 500 ------- 0 0.0 3.0 9 9
r 0.15102 0 2 cbr 500 ------- 0 0.0 3.0 10 10
+ 0.15102 2 3 cbr 500 ------- 0 0.0 3.0 10 10
- 0.15102 2 3 cbr 500 ------- 0 0.0 3.0 10 10
+ 0.155 0 2 cbr 500 ------- 0 0.0 3.0 11 11
- 0.155 0 2 cbr 500 ------- 0 0.0 3.0 11 11
r 0.15602 2 3 cbr 500 ------- 0 0.0 3.0 10 10
r 0.15602 0 2 cbr 500 ------- 0 0.0 3.0 11 11
+ 0.15602 2 3 cbr 500 ------- 0 0.0 3.0 11 11
- 0.15602 2 3 cbr 500 ------- 0 0.0 3.0 11 11
+ 0.16 0 2 cbr 500 ------- 0 0.0 3.0 12 12
- 0.16 0 2 cbr 500 ------- 0 0.0 3.0 12 12
r 0.16102 2 3 cbr 500 ------- 0 0.0 3.0 11 11
r 0.16102 0 2 cbr 500 ------- 0 0.0 3.0 12 12
+ 0.16102 2 3 cbr 500 ------- 0 0.0 3.0 12 12
- 0.16102 2 3 cbr 500 ------- 0 0.0 3.0 12 12
+ 0.165 0 2 cbr 500 ------- 0 0.0 3.0 13 13
- 0.165 0 2 cbr 500 ------- 0 0.0 3.0 13 13
r 0.16602 2 3 cbr 500 ------- 0 0.0 3.0 12 12
r 0.16602 0 2 cbr 500 ------- 0 0.0 3.0 13 13
+ 0.16602 2 3 cbr 500 ------- 0 0.0 3.0 13 13
- 0.16602 2 3 cbr 500 ------- 0 0.0 3.0 13 13
+ 0.17 0 2 cbr 500 ------- 0 0.0 3.0 14 14
- 0.17 0 2 cbr 500 ------- 0 0.0 3.0 14 14
r 0.17102 2 3 cbr 500 ------- 0 0.0 3.0 13 13
r 0.17102 0 2 cbr 500 ------- 0 0.0 3.0 14 14
+ 0.17102 2 3 cbr 500 ------- 0 0.0 3.0 14 14
- 0.17102 2 3 cbr 500 ------- 0 0.0 3.0 14 14
+ 0.175 0 2 cbr 500 ------- 0 0.0 3.0 15 15
- 0.175 0 2 cbr 500 ------- 0 0.0 3.0 15 15
r 0.17602 2 3 cbr 500 ------- 0 0.0 3.0 14 14
r 0.17602 0 2 cbr 500 ------- 0 0.0 3.0 15 15
+ 0.17602 2 3 cbr 500 ------- 0 0.0 3.0 15 15
- 0.17602 2 3 cbr 500 ------- 0 0.0 3.0 15 15
+ 0.18 0 2 cbr 500 ------- 0 0.0 3.0 16 16
- 0.18 0 2 cbr 500 ------- 0 0.0 3.0 16 16
r 0.18102 2 3 cbr 500 ------- 0 0.0 3.0 15 15
r 0.18102 0 2 cbr 500 ------- 0 0.0 3.0 16 16
+ 0.18102 2 3 cbr 500 ------- 0 0.0 3.0 16 16
- 0.18102 2 3 cbr 500 ------- 0 0.0 3.0 16 16
+ 0.185 0 2 cbr 500 ------- 0 0.0 3.0 17 17
- 0.185 0 2 cbr 500 ------- 0 0.0 3.0 17 17
r 0.18602 2 3 cbr 500 ------- 0 0.0 3.0 16 16
r 0.18602 0 2 cbr 500 ------- 0 0.0 3.0 17 17
+ 0.18602 2 3 cbr 500 ------- 0 0.0 3.0 17 17
- 0.18602 2 3 cbr 500 ------- 0 0.0 3.0 17 17
+ 0.19 0 2 cbr 500 ------- 0 0.0 3.0 18 18
- 0.19 0 2 cbr 500 ------- 0 0.0 3.0 18 18
r 0.19102 2 3 cbr 500 ------- 0 0.0 3.0 17 17
r 0.19102 0 2 cbr 500 ------- 0 0.0 3.0 18 18
+ 0.19102 2 3 cbr 500 ------- 0 0.0 3.0 18 18
- 0.19102 2 3 cbr 500 ------- 0 0.0 3.0 18 18
+ 0.195 0 2 cbr 500 ------- 0 0.0 3.0 19 19
- 0.195 0 2 cbr 500 ------- 0 0.0 3.0 19 19
r 0.19602 2 3 cbr 500 ------- 0 0.0 3.0 18 18
r 0.19602 0 2 cbr 500 ------- 0 0.0 3.0 19 19
+ 0.19602 2 3 cbr 500 ------- 0 0.0 3.0 19 19
- 0.19602 2 3 cbr 500 ------- 0 0.0 3.0 19 19
+ 0.2 1 2 cbr 210 ------- 0 1.0 3.0 0 20
- 0.2 1 2 cbr 210 ------- 0 1.0 3.0 0 20
+ 0.2 0 2 cbr 500 ------- 0 0.0 3.0 20 21
- 0.2 0 2 cbr 500 ------- 0 0.0 3.0 20 21
r 0.20102 2 3 cbr 500 ------- 0 0.0 3.0 19 19
r 0.20102 0 2 cbr 500 ------- 0 0.0 3.0 20 21
+ 0.20102 2 3 cbr 500 ------- 0 0.0 3.0 20 21
- 0.20102 2 3 cbr 500 ------- 0 0.0 3.0 20 21
+ 0.20375 1 2 cbr 210 ------- 0 1.0 3.0 1 22
- 0.20375 1 2 cbr 210 ------- 0 1.0 3.0 1 22
+ 0.205 0 2 cbr 500 ------- 0 0.0 3.0 21 23
- 0.205 0 2 cbr 500 ------- 0 0.0 3.0 21 23
r 0.205017 1 2 cbr 210 ------- 0 1.0 3.0 0 20
+ 0.205017 2 3 cbr 210 ------- 0 1.0 3.0 0 20
- 0.20502 2 3 cbr 210 ------- 0 1.0 3.0 0 20
r 0.20602 2 3 cbr 500 ------- 0 0.0 3.0 20 21
r 0.20602 0 2 cbr 500 ------- 0 0.0 3.0 21 23
+ 0.20602 2 3 cbr 500 ------- 0 0.0 3.0 21 23
- 0.2067 2 3 cbr 500 ------- 0 0.0 3.0 21 23
+ 0.2075 1 2 cbr 210 ------- 0 1.0 3.0 2 24
- 0.2075 1 2 cbr 210 ------- 0 1.0 3.0 2 24
r 0.2077 2 3 cbr 210 ------- 0 1.0 3.0 0 20
r 0.208767 1 2 cbr 210 ------- 0 1.0 3.0 1 22
+ 0.208767 2 3 cbr 210 ------- 0 1.0 3.0 1 22
+ 0.21 0 2 cbr 500 ------- 0 0.0 3.0 22 25
- 0.21 0 2 cbr 500 ------- 0 0.0 3.0 22 25
- 0.2107 2 3 cbr 210 ------- 0 1.0 3.0 1 22
r 0.21102 0 2 cbr 500 ------- 0 0.0 3.0 22 25
+ 0.21102 2 3 cbr 500 ------- 0 0.0 3.0 22 25
+ 0.21125 1 2 cbr 210 ------- 0 1.0 3.0 3 26
- 0.21125 1 2 cbr 210 ------- 0 1.0 3.0 3 26
r 0.2117 2 3 cbr 500 ------- 0 0.0 3.0 21 23
- 0.21238 2 3 cbr 500 ------- 0 0.0 3.0 22 25
r 0.212517 1 2 cbr 210 ------- 0 1.0 3.0 2 24
+ 0.212517 2 3 cbr 210 ------- 0 1.0 3.0 2 24
r 0.21338 2 3 cbr 210 ------- 0 1.0 3.0 1 22
+ 0.215 1 2 cbr 210 ------- 0 1.0 3.0 4 27
- 0.215 1 2 cbr 210 ------- 0 1.0 3.0 4 27
+ 0.215 0 2 cbr 500 ------- 0 0.0 3.0 23 28
- 0.215 0 2 cbr 500 ------- 0 0.0 3.0 23 28
r 0.21602 0 2 cbr 500 ------- 0 0.0 3.0 23 28
+ 0.21602 2 3 cbr 500 ------- 0 0.0 3.0 23 28
r 0.216267 1 2 cbr 210 ------- 0 1.0 3.0 3 26
+ 0.216267 2 3 cbr 210 ------- 0 1.0 3.0 3 26
- 0.21638 2 3 cbr 210 ------- 0 1.0 3.0 2 24
r 0.21738 2 3 cbr 500 ------- 0 0.0 3.0 22 25
- 0.21806 2 3 cbr 500 ------- 0 0.0 3.0 23 28
+ 0.21875 1 2 cbr 210 ------- 0 1.0 3.0 5 29
- 0.21875 1 2 cbr 210 ------- 0 1.0 3.0 5 29
r 0.21906 2 3 cbr 210 ------- 0 1.0 3.0 2 24
+ 0.22 0 2 cbr 500 ------- 0 0.0 3.0 24 30
- 0.22 0 2 cbr 500 ------- 0 0.0 3.0 24 30
r 0.220017 1 2 cbr 210 ------- 0 1.0 3.0 4 27
+ 0.220017 2 3 cbr 210 ------- 0 1.0 3.0 4 27
r 0.22102 0 2 cbr 500 ------- 0 0.0 3.0 24 30
+ 0.22102 2 3 cbr 500 ------- 0 0.0 3.0 24 30
- 0.22206 2 3 cbr 210 ------- 0 1.0 3.0 3 26
+ 0.2225 1 2 cbr 210 ------- 0 1.0 3.0 6 31
- 0.2225 1 2 cbr 210 ------- 0 1.0 3.0 6 31
r 0.22306 2 3 cbr 500 ------- 0 0.0 3.0 23 28
- 0.22374 2 3 cbr 210 ------- 0 1.0 3.0 4 27
r 0.223767 1 2 cbr 210 ------- 0 1.0 3.0 5 29
+ 0.223767 2 3 cbr 210 ------- 0 1.0 3.0 5 29
r 0.22474 2 3 cbr 210 ------- 0 1.0 3.0 3 26
+ 0.225 0 2 cbr 500 ------- 0 0.0 3.0 25 32
- 0.225 0 2 cbr 500 ------- 0 0.0 3.0 25 32
- 0.22542 2 3 cbr 500 ------- 0 0.0 3.0 24 30
r 0.22602 0 2 cbr 500 ------- 0 0.0 3.0 25 32
+ 0.22602 2 3 cbr 500 ------- 0 0.0 3.0 25 32
+ 0.22625 1 2 cbr 210 ------- 0 1.0 3.0 7 33
- 0.22625 1 2 cbr 210 ------- 0 1.0 3.0 7 33
r 0.22642 2 3 cbr 210 ------- 0 1.0 3.0 4 27
r 0.227517 1 2 cbr 210 ------- 0 1.0 3.0 6 31
+ 0.227517 2 3 cbr 210 ------- 0 1.0 3.0 6 31
- 0.22942 2 3 cbr 210 ------- 0 1.0 3.0 5 29
+ 0.23 1 2 cbr 210 ------- 0 1.0 3.0 8 34
- 0.23 1 2 cbr 210 ------- 0 1.0 3.0 8 34
+ 0.23 0 2 cbr 500 ------- 0 0.0 3.0 26 35
- 0.23 0 2 cbr 500 ------- 0 0.0 3.0 26 35
r 0.23042 2 3 cbr 500 ------- 0 0.0 3.0 24 30
r 0.23102 0 2 cbr 500 ------- 0 0.0 3.0 26 35
+ 0.23102 2 3 cbr 500 ------- 0 0.0 3.0 26 35
- 0.2311 2 3 cbr 500 ------- 0 0.0 3.0 25 32
r 0.231267 1 2 cbr 210 ------- 0 1.0 3.0 7 33
+ 0.231267 2 3 cbr 210 ------- 0 1.0 3.0 7 33
r 0.2321 2 3 cbr 210 ------- 0 1.0 3.0 5 29
+ 0.23375 1 2 cbr 210 ------- 0 1.0 3.0 9 36
- 0.23375 1 2 cbr 210 ------- 0 1.0 3.0 9 36
+ 0.235 0 2 cbr 500 ------- 0 0.0 3.0 27 37
- 0.235 0 2 cbr 500 ------- 0 0.0 3.0 27 37
r 0.235017 1 2 cbr 210 ------- 0 1.0 3.0 8 34
+ 0.235017 2 3 cbr 210 ------- 0 1.0 3.0 8 34
- 0.2351 2 3 cbr 210 ------- 0 1.0 3.0 6 31
r 0.23602 0 2 cbr 500 ------- 0 0.0 3.0 27 37
+ 0.23602 2 3 cbr 500 ------- 0 0.0 3.0 27 37
r 0.2361 2 3 cbr 500 ------- 0 0.0 3.0 25 32
- 0.23678 2 3 cbr 500 ------- 0 0.0 3.0 26 35
+ 0.2375 1 2 cbr 210 ------- 0 1.0 3.0 10 38
- 0.2375 1 2 cbr 210 ------- 0 1.0 3.0 10 38
r 0.23778 2 3 cbr 210 ------- 0 1.0 3.0 6 31
r 0.238767 1 2 cbr 210 ------- 0 1.0 3.0 9 36
+ 0.238767 2 3 cbr 210 ------- 0 1.0 3.0 9 36
+ 0.24 0 2 cbr 500 ------- 0 0.0 3.0 28 39
- 0.24 0 2 cbr 500 ------- 0 0.0 3.0 28 39
- 0.24078 2 3 cbr 210 ------- 0 1.0 3.0 7 33
r 0.24102 0 2 cbr 500 ------- 0 0.0 3.0 28 39
+ 0.24102 2 3 cbr 500 ------- 0 0.0 3.0 28 39
+ 0.24125 1 2 cbr 210 ------- 0 1.0 3.0 11 40
- 0.24125 1 2 cbr 210 ------- 0 1.0 3.0 11 40
r 0.24178 2 3 cbr 500 ------- 0 0.0 3.0 26 35
- 0.24246 2 3 cbr 210 ------- 0 1.0 3.0 8 34
r 0.242517 1 2 cbr 210 ------- 0 1.0 3.0 10 38
+ 0.242517 2 3 cbr 210 ------- 0 1.0 3.0 10 38
r 0.24346 2 3 cbr 210 ------- 0 1.0 3.0 7 33
- 0.24414 2 3 cbr 500 ------- 0 0.0 3.0 27 37
+ 0.245 1 2 cbr 210 ------- 0 1.0 3.0 12 41
- 0.245 1 2 cbr 210 ------- 0 1.0 3.0 12 41
+ 0.245 0 2 cbr 500 ------- 0 0.0 3.0 29 42
- 0.245 0 2 cbr 500 ------- 0 0.0 3.0 29 42
r 0.24514 2 3 cbr 210 ------- 0 1.0 3.0 8 34
r 0.24602 0 2 cbr 500 ------- 0 0.0 3.0 29 42
+ 0.24602 2 3 cbr 500 ------- 0 0.0 3.0 29 42
r 0.246267 1 2 cbr 210 ------- 0 1.0 3.0 11 40
+ 0.246267 2 3 cbr 210 ------- 0 1.0 3.0 11 40
- 0.24814 2 3 cbr 210 ------- 0 1.0 3.0 9 36
+ 0.24875 1 2 cbr 210 ------- 0 1.0 3.0 13 43
- 0.24875 1 2 cbr 210 ------- 0 1.0 3.0 13 43
r 0.24914 2 3 cbr 500 ------- 0 0.0 3.0 27 37
- 0.24982 2 3 cbr 500 ------- 0 0.0 3.0 28 39
+ 0.25 0 2 cbr 500 ------- 0 0.0 3.0 30 44
- 0.25 0 2 cbr 500 ------- 0 0.0 3.0 30 44
r 0.250017 1 2 cbr 210 ------- 0 1.0 3.0 12 41
+ 0.250017 2 3 cbr 210 ------- 0 1.0 3.0 12 41
r 0.25082 2 3 cbr 210 ------- 0 1.0 3.0 9 36
r 0.25102 0 2 cbr 500 ------- 0 0.0 3.0 30 44
+ 0.25102 2 3 cbr 500 ------- 0 0.0 3.0 30 44
+ 0.2525 1 2 cbr 210 ------- 0 1.0 3.0 14 45
- 0.2525 1 2 cbr 210 ------- 0 1.0 3.0 14 45
r 0.253767 1 2 cbr 210 ------- 0 1.0 3.0 13 43
+ 0.253767 2 3 cbr 210 ------- 0 1.0 3.0 13 43
- 0.25382 2 3 cbr 210 ------- 0 1.0 3.0 10 38
r 0.25482 2 3 cbr 500 ------- 0 0.0 3.0 28 39
+ 0.255 0 2 cbr 500 ------- 0 0.0 3.0 31 46
- 0.255 0 2 cbr 500 ------- 0 0.0 3.0 31 46
- 0.2555 2 3 cbr 500 ------- 0 0.0 3.0 29 42
r 0.25602 0 2 cbr 500 ------- 0 0.0 3.0 31 46
+ 0.25602 2 3 cbr 500 ------- 0 0.0 3.0 31 46
+ 0.25625 1 2 cbr 210 ------- 0 1.0 3.0 15 47
- 0.25625 1 2 cbr 210 ------- 0 1.0 3.0 15 47
r 0.2565 2 3 cbr 210 ------- 0 1.0 3.0 10 38
r 0.257517 1 2 cbr 210 ------- 0 1.0 3.0 14 45
+ 0.257517 2 3 cbr 210 ------- 0 1.0 3.0 14 45
- 0.2595 2 3 cbr 210 ------- 0 1.0 3.0 11 40
+ 0.26 1 2 cbr 210 ------- 0 1.0 3.0 16 48
- 0.26 1 2 cbr 210 ------- 0 1.0 3.0 16 48
+ 0.26 0 2 cbr 500 ------- 0 0.0 3.0 32 49
- 0.26 0 2 cbr 500 ------- 0 0.0 3.0 32 49
r 0.2605 2 3 cbr 500 ------- 0 0.0 3.0 29 42
r 0.26102 0 2 cbr 500 ------- 0 0.0 3.0 32 49
+ 0.26102 2 3 cbr 500 ------- 0 0.0 3.0 32 49
- 0.26118 2 3 cbr 210 ------- 0 1.0 3.0 12 41
r 0.261267 1 2 cbr 210 ------- 0 1.0 3.0 15 47
+ 0.261267 2 3 cbr 210 ------- 0 1.0 3.0 15 47
r 0.26218 2 3 cbr 210 ------- 0 1.0 3.0 11 40
- 0.26286 2 3 cbr 500 ------- 0 0.0 3.0 30 44
+ 0.26375 1 2 cbr 210 ------- 0 1.0 3.0 17 50
- 0.26375 1 2 cbr 210 ------- 0 1.0 3.0 17 50
r 0.26386 2 3 cbr 210 ------- 0 1.0 3.0 12 41
+ 0.265 0 2 cbr 500 ------- 0 0.0 3.0 33 51
- 0.265 0 2 cbr 500 ------- 0 0.0 3.0 33 51
r 0.265017 1 2 cbr 210 ------- 0 1.0 3.0 16 48
+ 0.265017 2 3 cbr 210 ------- 0 1.0 3.0 16 48
r 0.26602 0 2 cbr 500 ------- 0 0.0 3.0 33 51
+ 0.26602 2 3 cbr 500 ------- 0 0.0 3.0 33 51
- 0.26686 2 3 cbr 210 ------- 0 1.0 3.0 13 43
+ 0.2675 1 2 cbr 210 ------- 0 1.0 3.0 18 52
- 0.2675 1 2 cbr 210 ------- 0 1.0 3.0 18 52
r 0.26786 2 3 cbr 500 ------- 0 0.0 3.0 30 44
- 0.26854 2 3 cbr 500 ------- 0 0.0 3.0 31 46
r 0.268767 1 2 cbr 210 ------- 0 1.0 3.0 17 50
+ 0.268767 2 3 cbr 210 ------- 0 1.0 3.0 17 50
r 0.26954 2 3 cbr 210 ------- 0 1.0 3.0 13 43
+ 0.27 0 2 cbr 500 ------- 0 0.0 3.0 34 53
- 0.27 0 2 cbr 500 ------- 0 0.0 3.0 34 53
r 0.27102 0 2 cbr 500 ------- 0 0.0 3.0 34 53
+ 0.27102 2 3 cbr 500 ------- 0 0.0 3.0 34 53
+ 0.27125 1 2 cbr 210 ------- 0 1.0 3.0 19 54
- 0.27125 1 2 cbr 210 ------- 0 1.0 3.0 19 54
r 0.272517 1 2 cbr 210 ------- 0 1.0 3.0 18 52
+ 0.272517 2 3 cbr 210 ------- 0 1.0 3.0 18 52
- 0.27254 2 3 cbr 210 ------- 0 1.0 3.0 14 45
r 0.27354 2 3 cbr 500 ------- 0 0.0 3.0 31 46
- 0.27422 2 3 cbr 500 ------- 0 0.0 3.0 32 49
+ 0.275 1 2 cbr 210 ------- 0 1.0 3.0 20 55
- 0.275 1 2 cbr 210 ------- 0 1.0 3.0 20 55
+ 0.275 0 2 cbr 500 ------- 0 0.0 3.0 35 56
- 0.275 0 2 cbr 500 ------- 0 0.0 3.0 35 56
r 0.27522 2 3 cbr 210 ------- 0 1.0 3.0 14 45
r 0.27602 0 2 cbr 500 ------- 0 0.0 3.0 35 56
+ 0.27602 2 3 cbr 500 ------- 0 0.0 3.0 35 56
r 0.276267 1 2 cbr 210 ------- 0 1.0 3.0 19 54
+ 0.276267 2 3 cbr 210 ------- 0 1.0 3.0 19 54
- 0.27822 2 3 cbr 210 ------- 0 1.0 3.0 15 47
+ 0.27875 1 2 cbr 210 ------- 0 1.0 3.0 21 57
- 0.27875 1 2 cbr 210 ------- 0 1.0 3.0 21 57
r 0.27922 2 3 cbr 500 ------- 0 0.0 3.0 32 49
- 0.2799 2 3 cbr 210 ------- 0 1.0 3.0 16 48
+ 0.28 0 2 cbr 500 ------- 0 0.0 3.0 36 58
- 0.28 0 2 cbr 500 ------- 0 0.0 3.0 36 58
r 0.280017 1 2 cbr 210 ------- 0 1.0 3.0 20 55
+ 0.280017 2 3 cbr 210 ------- 0 1.0 3.0 20 55
r 0.2809 2 3 cbr 210 ------- 0 1.0 3.0 15 47
r 0.28102 0 2 cbr 500 ------- 0 0.0 3.0 36 58
+ 0.28102 2 3 cbr 500 ------- 0 0.0 3.0 36 58
- 0.28158 2 3 cbr 500 ------- 0 0.0 3.0 33 51
+ 0.2825 1 2 cbr 210 ------- 0 1.0 3.0 22 59
- 0.2825 1 2 cbr 210 ------- 0 1.0 3.0 22 59
r 0.28258 2 3 cbr 210 ------- 0 1.0 3.0 16 48
r 0.283767 1 2 cbr 210 ------- 0 1.0 3.0 21 57
+ 0.283767 2 3 cbr 210 ------- 0 1.0 3.0 21 57
+ 0.285 0 2 cbr 500 ------- 0 0.0 3.0 37 60
- 0.285 0 2 cbr 500 ------- 0 0.0 3.0 37 60
- 0.28558 2 3 cbr 210 ------- 0 1.0 3.0 17 50
r 0.28602 0 2 cbr 500 ------- 0 0.0 3.0 37 60
+ 0.28602 2 3 cbr 500 ------- 0 0.0 3.0 37 60
+ 0.28625 1 2 cbr 210 ------- 0 1.0 3.0 23 61
- 0.28625 1 2 cbr 210 ------- 0 1.0 3.0 23 61
r 0.28658 2 3 cbr 500 ------- 0 0.0 3.0 33 51
- 0.28726 2 3 cbr 500 ------- 0 0.0 3.0 34 53
r 0.287517 1 2 cbr 210 ------- 0 1.0 3.0 22 59
+ 0.287517 2 3 cbr 210 ------- 0 1.0 3.0 22 59
r 0.28826 2 3 cbr 210 ------- 0 1.0 3.0 17 50
+ 0.29 1 2 cbr 210 ------- 0 1.0 3.0 24 62
- 0.29 1 2 cbr 210 ------- 0 1.0 3.0 24 62
+ 0.29 0 2 cbr 500 ------- 0 0.0 3.0 38 63
- 0.29 0 2 cbr 500 ------- 0 0.0 3.0 38 63
r 0.29102 0 2 cbr 500 ------- 0 0.0 3.0 38 63
+ 0.29102 2 3 cbr 500 ------- 0 0.0 3.0 38 63
- 0.29126 2 3 cbr 210 ------- 0 1.0 3.0 18 52
r 0.291267 1 2 cbr 210 ------- 0 1.0 3.0 23 61
+ 0.291267 2 3 cbr 210 ------- 0 1.0 3.0 23 61
r 0.29226 2 3 cbr 500 ------- 0 0.0 3.0 34 53
- 0.29294 2 3 cbr 500 ------- 0 0.0 3.0 35 56
+ 0.29375 1 2 cbr 210 ------- 0 1.0 3.0 25 64
- 0.29375 1 2 cbr 210 ------- 0 1.0 3.0 25 64
r 0.29394 2 3 cbr 210 ------- 0 1.0 3.0 18 52
+ 0.295 0 2 cbr 500 ------- 0 0.0 3.0 39 65
- 0.295 0 2 cbr 500 ------- 0 0.0 3.0 39 65
r 0.295017 1 2 cbr 210 ------- 0 1.0 3.0 24 62
+ 0.295017 2 3 cbr 210 ------- 0 1.0 3.0 24 62
r 0.29602 0 2 cbr 500 ------- 0 0.0 3.0 39 65
+ 0.29602 2 3 cbr 500 ------- 0 0.0 3.0 39 65
- 0.29694 2 3 cbr 210 ------- 0 1.0 3.0 19 54
+ 0.2975 1 2 cbr 210 ------- 0 1.0 3.0 26 66
- 0.2975 1 2 cbr 210 ------- 0 1.0 3.0 26 66
r 0.29794 2 3 cbr 500 ------- 0 0.0 3.0 35 56
- 0.29862 2 3 cbr 210 ------- 0 1.0 3.0 20 55
r 0.298767 1 2 cbr 210 ------- 0 1.0 3.0 25 64
+ 0.298767 2 3 cbr 210 ------- 0 1.0 3.0 25 64
r 0.29962 2 3 cbr 210 ------- 0 1.0 3.0 19 54
+ 0.3 0 2 cbr 500 ------- 0 0.0 3.0 40 67
- 0.3 0 2 cbr 500 ------- 0 0.0 3.0 40 67
- 0.3003 2 3 cbr 500 ------- 0 0.0 3.0 36 58
r 0.30102 0 2 cbr 500 ------- 0 0.0 3.0 40 67
+ 0.30102 2 3 cbr 500 ------- 0 0.0 3.0 40 67
+ 0.30125 1 2 cbr 210 ------- 0 1.0 3.0 27 68
- 0.30125 1 2 cbr 210 ------- 0 1.0 3.0 27 68
r 0.3013 2 3 cbr 210 ------- 0 1.0 3.0 20 55
r 0.302517 1 2 cbr 210 ------- 0 1.0 3.0 26 66
+ 0.302517 2 3 cbr 210 ------- 0 1.0 3.0 26 66
- 0.3043 2 3 cbr 210 ------- 0 1.0 3.0 21 57
+ 0.305 1 2 cbr 210 ------- 0 1.0 3.0 28 69
- 0.305 1 2 cbr 210 ------- 0 1.0 3.0 28 69
+ 0.305 0 2 cbr 500 ------- 0 0.0 3.0 41 70
- 0.305 0 2 cbr 500 ------- 0 0.0 3.0 41 70
r 0.3053 2 3 cbr 500 ------- 0 0.0 3.0 36 58
- 0.30598 2 3 cbr 500 ------- 0 0.0 3.0 37 60
r 0.30602 0 2 cbr 500 ------- 0 0.0 3.0 41 70
+ 0.30602 2 3 cbr 500 ------- 0 0.0 3.0 41 70
r 0.306267 1 2 cbr 210 ------- 0 1.0 3.0 27 68
+ 0.306267 2 3 cbr 210 ------- 0 1.0 3.0 27 68
r 0.30698 2 3 cbr 210 ------- 0 1.0 3.0 21 57
+ 0.30875 1 2 cbr 210 ------- 0 1.0 3.0 29 71
- 0.30875 1 2 cbr 210 ------- 0 1.0 3.0 29 71
- 0.30998 2 3 cbr 210 ------- 0 1.0 3.0 22 59
+ 0.31 0 2 cbr 500 ------- 0 0.0 3.0 42 72
- 0.31 0 2 cbr 500 ------- 0 0.0 3.0 42 72
r 0.310017 1 2 cbr 210 ------- 0 1.0 3.0 28 69
+ 0.310017 2 3 cbr 210 ------- 0 1.0 3.0 28 69
r 0.31098 2 3 cbr 500 ------- 0 0.0 3.0 37 60
r 0.31102 0 2 cbr 500 ------- 0 0.0 3.0 42 72
+ 0.31102 2 3 cbr 500 ------- 0 0.0 3.0 42 72
- 0.31166 2 3 cbr 500 ------- 0 0.0 3.0 38 63
+ 0.3125 1 2 cbr 210 ------- 0 1.0 3.0 30 73
- 0.3125 1 2 cbr 210 ------- 0 1.0 3.0 30 73
r 0.31266 2 3 cbr 210 ------- 0 1.0 3.0 22 59
r 0.313767 1 2 cbr 210 ------- 0 1.0 3.0 29 71
+ 0.313767 2 3 cbr 210 ------- 0 1.0 3.0 29 71
+ 0.315 0 2 cbr 500 ------- 0 0.0 3.0 43 74
- 0.315 0 2 cbr 500 ------- 0 0.0 3.0 43 74
- 0.31566 2 3 cbr 210 ------- 0 1.0 3.0 23 61
r 0.31602 0 2 cbr 500 ------- 0 0.0 3.0 43 74
+ 0.31602 2 3 cbr 500 ------- 0 0.0 3.0 43 74
+ 0.31625 1 2 cbr 210 ------- 0 1.0 3.0 31 75
- 0.31625 1 2 cbr 210 ------- 0 1.0 3.0 31 75
r 0.31666 2 3 cbr 500 ------- 0 0.0 3.0 38 63
- 0.31734 2 3 cbr 210 ------- 0 1.0 3.0 24 62
r 0.317517 1 2 cbr 210 ------- 0 1.0 3.0 30 73
+ 0.317517 2 3 cbr 210 ------- 0 1.0 3.0 30 73
r 0.31834 2 3 cbr 210 ------- 0 1.0 3.0 23 61
- 0.31902 2 3 cbr 500 ------- 0 0.0 3.0 39 65
+ 0.32 1 2 cbr 210 ------- 0 1.0 3.0 32 76
- 0.32 1 2 cbr 210 ------- 0 1.0 3.0 32 76
+ 0.32 0 2 cbr 500 ------- 0 0.0 3.0 44 77
- 0.32 0 2 cbr 500 ------- 0 0.0 3.0 44 77
r 0.32002 2 3 cbr 210 ------- 0 1.0 3.0 24 62
r 0.32102 0 2 cbr 500 ------- 0 0.0 3.0 44 77
+ 0.32102 2 3 cbr 500 ------- 0 0.0 3.0 44 77
r 0.321267 1 2 cbr 210 ------- 0 1.0 3.0 31 75
+ 0.321267 2 3 cbr 210 ------- 0 1.0 3.0 31 75
- 0.32302 2 3 cbr 210 ------- 0 1.0 3.0 25 64
+ 0.32375 1 2 cbr 210 ------- 0 1.0 3.0 33 78
- 0.32375 1 2 cbr 210 ------- 0 1.0 3.0 33 78
r 0.32402 2 3 cbr 500 ------- 0 0.0 3.0 39 65
- 0.3247 2 3 cbr 500 ------- 0 0.0 3.0 40 67
+ 0.325 0 2 cbr 500 ------- 0 0.0 3.0 45 79
- 0.325 0 2 cbr 500 ------- 0 0.0 3.0 45 79
r 0.325017 1 2 cbr 210 ------- 0 1.0 3.0 32 76
+ 0.325017 2 3 cbr 210 ------- 0 1.0 3.0 32 76
r 0.3257 2 3 cbr 210 ------- 0 1.0 3.0 25 64
r 0.32602 0 2 cbr 500 ------- 0 0.0 3.0 45 79
+ 0.32602 2 3 cbr 500 ------- 0 0.0 3.0 45 79
+ 0.3275 1 2 cbr 210 ------- 0 1.0 3.0 34 80
- 0.3275 1 2 cbr 210 ------- 0 1.0 3.0 34 80
- 0.3287 2 3 cbr 210 ------- 0 1.0 3.0 26 66
r 0.328767 1 2 cbr 210 ------- 0 1.0 3.0 33 78
+ 0.328767 2 3 cbr 210 ------- 0 1.0 3.0 33 78
r 0.3297 2 3 cbr 500 ------- 0 0.0 3.0 40 67
+ 0.33 0 2 cbr 500 ------- 0 0.0 3.0 46 81
- 0.33 0 2 cbr 500 ------- 0 0.0 3.0 46 81
- 0.33038 2 3 cbr 500 ------- 0 0.0 3.0 41 70
r 0.33102 0 2 cbr 500 ------- 0 0.0 3.0 46 81
+ 0.33102 2 3 cbr 500 ------- 0 0.0 3.0 46 81
+ 0.33125 1 2 cbr 210 ------- 0 1.0 3.0 35 82
- 0.33125 1 2 cbr 210 ------- 0 1.0 3.0 35 82
r 0.33138 2 3 cbr 210 ------- 0 1.0 3.0 26 66
r 0.332517 1 2 cbr 210 ------- 0 1.0 3.0 34 80
+ 0.332517 2 3 cbr 210 ------- 0 1.0 3.0 34 80
- 0.33438 2 3 cbr 210 ------- 0 1.0 3.0 27 68
+ 0.335 1 2 cbr 210 ------- 0 1.0 3.0 36 83
- 0.335 1 2 cbr 210 ------- 0 1.0 3.0 36 83
+ 0.335 0 2 cbr 500 ------- 0 0.0 3.0 47 84
- 0.335 0 2 cbr 500 ------- 0 0.0 3.0 47 84
r 0.33538 2 3 cbr 500 ------- 0 0.0 3.0 41 70
r 0.33602 0 2 cbr 500 ------- 0 0.0 3.0 47 84
+ 0.33602 2 3 cbr 500 ------- 0 0.0 3.0 47 84
- 0.33606 2 3 cbr 210 ------- 0 1.0 3.0 28 69
r 0.336267 1 2 cbr 210 ------- 0 1.0 3.0 35 82
+ 0.336267 2 3 cbr 210 ------- 0 1.0 3.0 35 82
r 0.33706 2 3 cbr 210 ------- 0 1.0 3.0 27 68
- 0.33774 2 3 cbr 500 ------- 0 0.0 3.0 42 72
r 0.33874 2 3 cbr 210 ------- 0 1.0 3.0 28 69
+ 0.33875 1 2 cbr 210 ------- 0 1.0 3.0 37 85
- 0.33875 1 2 cbr 210 ------- 0 1.0 3.0 37 85
+ 0.34 0 2 cbr 500 ------- 0 0.0 3.0 48 86
- 0.34 0 2 cbr 500 ------- 0 0.0 3.0 48 86
r 0.340017 1 2 cbr 210 ------- 0 1.0 3.0 36 83
+ 0.340017 2 3 cbr 210 ------- 0 1.0 3.0 36 83
r 0.34102 0 2 cbr 500 ------- 0 0.0 3.0 48 86
+ 0.34102 2 3 cbr 500 ------- 0 0.0 3.0 48 86
- 0.34174 2 3 cbr 210 ------- 0 1.0 3.0 29 71
+ 0.3425 1 2 cbr 210 ------- 0 1.0 3.0 38 87
- 0.3425 1 2 cbr 210 ------- 0 1.0 3.0 38 87
r 0.34274 2 3 cbr 500 ------- 0 0.0 3.0 42 72
- 0.34342 2 3 cbr 500 ------- 0 0.0 3.0 43 74
r 0.343767 1 2 cbr 210 ------- 0 1.0 3.0 37 85
+ 0.343767 2 3 cbr 210 ------- 0 1.0 3.0 37 85
r 0.34442 2 3 cbr 210 ------- 0 1.0 3.0 29 71
+ 0.345 0 2 cbr 500 ------- 0 0.0 3.0 49 88
- 0.345 0 2 cbr 500 ------- 0 0.0 3.0 49 88
r 0.34602 0 2 cbr 500 ------- 0 0.0 3.0 49 88
+ 0.34602 2 3 cbr 500 ------- 0 0.0 3.0 49 88
+ 0.34625 1 2 cbr 210 ------- 0 1.0 3.0 39 89
- 0.34625 1 2 cbr 210 ------- 0 1.0 3.0 39 89
- 0.34742 2 3 cbr 210 ------- 0 1.0 3.0 30 73
r 0.347517 1 2 cbr 210 ------- 0 1.0 3.0 38 87
+ 0.347517 2 3 cbr 210 ------- 0 1.0 3.0 38 87
r 0.34842 2 3 cbr 500 ------- 0 0.0 3.0 43 74
- 0.3491 2 3 cbr 500 ------- 0 0.0 3.0 44 77
+ 0.35 1 2 cbr 210 ------- 0 1.0 3.0 40 90
- 0.35 1 2 cbr 210 ------- 0 1.0 3.0 40 90
+ 0.35 0 2 cbr 500 ------- 0 0.0 3.0 50 91
- 0.35 0 2 cbr 500 ------- 0 0.0 3.0 50 91
r 0.3501 2 3 cbr 210 ------- 0 1.0 3.0 30 73
r 0.35102 0 2 cbr 500 ------- 0 0.0 3.0 50 91
+ 0.35102 2 3 cbr 500 ------- 0 0.0 3.0 50 91
r 0.351267 1 2 cbr 210 ------- 0 1.0 3.0 39 89
+ 0.351267 2 3 cbr 210 ------- 0 1.0 3.0 39 89
- 0.3531 2 3 cbr 210 ------- 0 1.0 3.0 31 75
+ 0.35375 1 2 cbr 210 ------- 0 1.0 3.0 41 92
- 0.35375 1 2 cbr 210 ------- 0 1.0 3.0 41 92
r 0.3541 2 3 cbr 500 ------- 0 0.0 3.0 44 77
- 0.35478 2 3 cbr 210 ------- 0 1.0 3.0 32 76
+ 0.355 0 2 cbr 500 ------- 0 0.0 3.0 51 93
- 0.355 0 2 cbr 500 ------- 0 0.0 3.0 51 93
r 0.355017 1 2 cbr 210 ------- 0 1.0 3.0 40 90
+ 0.355017 2 3 cbr 210 ------- 0 1.0 3.0 40 90
r 0.35578 2 3 cbr 210 ------- 0 1.0 3.0 31 75
r 0.35602 0 2 cbr 500 ------- 0 0.0 3.0 51 93
+ 0.35602 2 3 cbr 500 ------- 0 0.0 3.0 51 93
- 0.35646 2 3 cbr 500 ------- 0 0.0 3.0 45 79
r 0.35746 2 3 cbr 210 ------- 0 1.0 3.0 32 76
+ 0.3575 1 2 cbr 210 ------- 0 1.0 3.0 42 94
- 0.3575 1 2 cbr 210 ------- 0 1.0 3.0 42 94
r 0.358767 1 2 cbr 210 ------- 0 1.0 3.0 41 92
+ 0.358767 2 3 cbr 210 ------- 0 1.0 3.0 41 92
+ 0.36 0 2 cbr 500 ------- 0 0.0 3.0 52 95
- 0.36 0 2 cbr 500 ------- 0 0.0 3.0 52 95
- 0.36046 2 3 cbr 210 ------- 0 1.0 3.0 33 78
r 0.36102 0 2 cbr 500 ------- 0 0.0 3.0 52 95
+ 0.36102 2 3 cbr 500 ------- 0 0.0 3.0 52 95
+ 0.36125 1 2 cbr 210 ------- 0 1.0 3.0 43 96
- 0.36125 1 2 cbr 210 ------- 0 1.0 3.0 43 96
r 0.36146 2 3 cbr 500 ------- 0 0.0 3.0 45 79
- 0.36214 2 3 cbr 500 ------- 0 0.0 3.0 46 81
r 0.362517 1 2 cbr 210 ------- 0 1.0 3.0 42 94
+ 0.362517 2 3 cbr 210 ------- 0 1.0 3.0 42 94
r 0.36314 2 3 cbr 210 ------- 0 1.0 3.0 33 78
+ 0.365 1 2 cbr 210 ------- 0 1.0 3.0 44 97
- 0.365 1 2 cbr 210 ------- 0 1.0 3.0 44 97
+ 0.365 0 2 cbr 500 ------- 0 0.0 3.0 53 98
- 0.365 0 2 cbr 500 ------- 0 0.0 3.0 53 98
r 0.36602 0 2 cbr 500 ------- 0 0.0 3.0 53 98
+ 0.36602 2 3 cbr 500 ------- 0 0.0 3.0 53 98
- 0.36614 2 3 cbr 210 ------- 0 1.0 3.0 34 80
r 0.366267 1 2 cbr 210 ------- 0 1.0 3.0 43 96
+ 0.366267 2 3 cbr 210 ------- 0 1.0 3.0 43 96
r 0.36714 2 3 cbr 500 ------- 0 0.0 3.0 46 81
- 0.36782 2 3 cbr 500 ------- 0 0.0 3.0 47 84
+ 0.36875 1 2 cbr 210 ------- 0 1.0 3.0 45 99
- 0.36875 1 2 cbr 210 ------- 0 1.0 3.0 45 99
r 0.36882 2 3 cbr 210 ------- 0 1.0 3.0 34 80
+ 0.37 0 2 cbr 500 ------- 0 0.0 3.0 54 100
- 0.37 0 2 cbr 500 ------- 0 0.0 3.0 54 100
r 0.370017 1 2 cbr 210 ------- 0 1.0 3.0 44 97
+ 0.370017 2 3 cbr 210 ------- 0 1.0 3.0 44 97
r 0.37102 0 2 cbr 500 ------- 0 0.0 3.0 54 100
+ 0.37102 2 3 cbr 500 ------- 0 0.0 3.0 54 100
- 0.37182 2 3 cbr 210 ------- 0 1.0 3.0 35 82
+ 0.3725 1 2 cbr 210 ------- 0 1.0 3.0 46 101
- 0.3725 1 2 cbr 210 ------- 0 1.0 3.0 46 101
r 0.37282 2 3 cbr 500 ------- 0 0.0 3.0 47 84
- 0.3735 2 3 cbr 210 ------- 0 1.0 3.0 36 83
r 0.373767 1 2 cbr 210 ------- 0 1.0 3.0 45 99
+ 0.373767 2 3 cbr 210 ------- 0 1.0 3.0 45 99
r 0.3745 2 3 cbr 210 ------- 0 1.0 3.0 35 82
+ 0.375 0 2 cbr 500 ------- 0 0.0 3.0 55 102
- 0.375 0 2 cbr 500 ------- 0 0.0 3.0 55 102
- 0.37518 2 3 cbr 500 ------- 0 0.0 3.0 48 86
r 0.37602 0 2 cbr 500 ------- 0 0.0 3.0 55 102
+ 0.37602 2 3 cbr 500 ------- 0 0.0 3.0 55 102
r 0.37618 2 3 cbr 210 ------- 0 1.0 3.0 36 83
+ 0.37625 1 2 cbr 210 ------- 0 1.0 3.0 47 103
- 0.37625 1 2 cbr 210 ------- 0 1.0 3.0 47 103
r 0.377517 1 2 cbr 210 ------- 0 1.0 3.0 46 101
+ 0.377517 2 3 cbr 210 ------- 0 1.0 3.0 46 101
- 0.37918 2 3 cbr 210 ------- 0 1.0 3.0 37 85
+ 0.38 1 2 cbr 210 ------- 0 1.0 3.0 48 104
- 0.38 1 2 cbr 210 ------- 0 1.0 3.0 48 104
+ 0.38 0 2 cbr 500 ------- 0 0.0 3.0 56 105
- 0.38 0 2 cbr 500 ------- 0 0.0 3.0 56 105
r 0.38018 2 3 cbr 500 ------- 0 0.0 3.0 48 86
- 0.38086 2 3 cbr 500 ------- 0 0.0 3.0 49 88
r 0.38102 0 2 cbr 500 ------- 0 0.0 3.0 56 105
+ 0.38102 2 3 cbr 500 ------- 0 0.0 3.0 56 105
r 0.381267 1 2 cbr 210 ------- 0 1.0 3.0 47 103
+ 0.381267 2 3 cbr 210 ------- 0 1.0 3.0 47 103
r 0.38186 2 3 cbr 210 ------- 0 1.0 3.0 37 85
+ 0.38375 1 2 cbr 210 ------- 0 1.0 3.0 49 106
- 0.38375 1 2 cbr 210 ------- 0 1.0 3.0 49 106
- 0.38486 2 3 cbr 210 ------- 0 1.0 3.0 38 87
+ 0.385 0 2 cbr 500 ------- 0 0.0 3.0 57 107
- 0.385 0 2 cbr 500 ------- 0 0.0 3.0 57 107
r 0.385017 1 2 cbr 210 ------- 0 1.0 3.0 48 104
+ 0.385017 2 3 cbr 210 ------- 0 1.0 3.0 48 104
r 0.38586 2 3 cbr 500 ------- 0 0.0 3.0 49 88
r 0.38602 0 2 cbr 500 ------- 0 0.0 3.0 57 107
+ 0.38602 2 3 cbr 500 ------- 0 0.0 3.0 57 107
- 0.38654 2 3 cbr 500 ------- 0 0.0 3.0 50 91
+ 0.3875 1 2 cbr 210 ------- 0 1.0 3.0 50 108
- 0.3875 1 2 cbr 210 ------- 0 1.0 3.0 50 108
r 0.38754 2 3 cbr 210 ------- 0 1.0 3.0 38 87
r 0.388767 1 2 cbr 210 ------- 0 1.0 3.0 49 106
+ 0.388767 2 3 cbr 210 ------- 0 1.0 3.0 49 106
+ 0.39 0 2 cbr 500 ------- 0 0.0 3.0 58 109
- 0.39 0 2 cbr 500 ------- 0 0.0 3.0 58 109
- 0.39054 2 3 cbr 210 ------- 0 1.0 3.0 39 89
r 0.39102 0 2 cbr 500 ------- 0 0.0 3.0 58 109
+ 0.39102 2 3 cbr 500 ------- 0 0.0 3.0 58 109
+ 0.39125 1 2 cbr 210 ------- 0 1.0 3.0 51 110
- 0.39125 1 2 cbr 210 ------- 0 1.0 3.0 51 110
r 0.39154 2 3 cbr 500 ------- 0 0.0 3.0 50 91
- 0.39222 2 3 cbr 210 ------- 0 1.0 3.0 40 90
r 0.392517 1 2 cbr 210 ------- 0 1.0 3.0 50 108
+ 0.392517 2 3 cbr 210 ------- 0 1.0 3.0 50 108
r 0.39322 2 3 cbr 210 ------- 0 1.0 3.0 39 89
- 0.3939 2 3 cbr 500 ------- 0 0.0 3.0 51 93
r 0.3949 2 3 cbr 210 ------- 0 1.0 3.0 40 90
+ 0.395 1 2 cbr 210 ------- 0 1.0 3.0 52 111
- 0.395 1 2 cbr 210 ------- 0 1.0 3.0 52 111
+ 0.395 0 2 cbr 500 ------- 0 0.0 3.0 59 112
- 0.395 0 2 cbr 500 ------- 0 0.0 3.0 59 112
r 0.39602 0 2 cbr 500 ------- 0 0.0 3.0 59 112
+ 0.39602 2 3 cbr 500 ------- 0 0.0 3.0 59 112
r 0.396267 1 2 cbr 210 ------- 0 1.0 3.0 51 110
+ 0.396267 2 3 cbr 210 ------- 0 1.0 3.0 51 110
- 0.3979 2 3 cbr 210 ------- 0 1.0 3.0 41 92
+ 0.39875 1 2 cbr 210 ------- 0 1.0 3.0 53 113
- 0.39875 1 2 cbr 210 ------- 0 1.0 3.0 53 113
r 0.3989 2 3 cbr 500 ------- 0 0.0 3.0 51 93
- 0.39958 2 3 cbr 500 ------- 0 0.0 3.0 52 95
+ 0.4 0 2 cbr 500 ------- 0 0.0 3.0 60 114
- 0.4 0 2 cbr 500 ------- 0 0.0 3.0 60 114
r 0.400017 1 2 cbr 210 ------- 0 1.0 3.0 52 111
+ 0.400017 2 3 cbr 210 ------- 0 1.0 3.0 52 111
r 0.40058 2 3 cbr 210 ------- 0 1.0 3.0 41 92
r 0.40102 0 2 cbr 500 ------- 0 0.0 3.0 60 114
+ 0.40102 2 3 cbr 500 ------- 0 0.0 3.0 60 114
+ 0.4025 1 2 cbr 210 ------- 0 1.0 3.0 54 115
- 0.4025 1 2 cbr 210 ------- 0 1.0 3.0 54 115
- 0.40358 2 3 cbr 210 ------- 0 1.0 3.0 42 94
r 0.403767 1 2 cbr 210 ------- 0 1.0 3.0 53 113
+ 0.403767 2 3 cbr 210 ------- 0 1.0 3.0 53 113
r 0.40458 2 3 cbr 500 ------- 0 0.0 3.0 52 95
+ 0.405 0 2 cbr 500 ------- 0 0.0 3.0 61 116
- 0.405 0 2 cbr 500 ------- 0 0.0 3.0 61 116
- 0.40526 2 3 cbr 500 ------- 0 0.0 3.0 53 98
r 0.40602 0 2 cbr 500 ------- 0 0.0 3.0 61 116
+ 0.40602 2 3 cbr 500 ------- 0 0.0 3.0 61 116
+ 0.40625 1 2 cbr 210 ------- 0 1.0 3.0 55 117
- 0.40625 1 2 cbr 210 ------- 0 1.0 3.0 55 117
r 0.40626 2 3 cbr 210 ------- 0 1.0 3.0 42 94
r 0.407517 1 2 cbr 210 ------- 0 1.0 3.0 54 115