V -t * -v 1.0a5 -a 0
A -t * -n 1 -p 0 -o 0x7fffffff -c 30 -a 1
A -t * -h 1 -m 1073741823 -s 0
n -t * -a 0 -s 0 -S UP -v circle -c black -i black
n -t * -a 1 -s 1 -S UP -v circle -c black -i black
n -t * -a 2 -s 2 -S UP -v circle -c black -i black
n -t * -a 3 -s 3 -S UP -v circle -c black -i black
l -t * -s 0 -d 2 -S UP -r 200000000 -D 0.001 -c black
l -t * -s 1 -d 2 -S UP -r 100000000 -D 0.0050000000000000001 -c black
l -t * -s 2 -d 3 -S UP -r 1000000 -D 0.001 -c black
+ -t 0.1 -s 0 -d 2 -p cbr -e 500 -c 0 -i 0 -a 0 -x {0.0 3.0 0 ------- null}
- -t 0.1 -s 0 -d 2 -p cbr -e 500 -c 0 -i 0 -a 0 -x {0.0 3.0 0 ------- null}
h -t 0.1 -s 0 -d 2 -p cbr -e 500 -c 0 -i 0 -a 0 -x {0.0 3.0 -1 ------- null}
r -t 0.10102 -s 0 -d 2 -p cbr -e 500 -c 0 -i 0 -a 0 -x {0.0 3.0 0 ------- null}
+ -t 0.10102 -s 2 -d 3 -p cbr -e 500 -c 0 -i 0 -a 0 -x {0.0 3.0 0 ------- null}
- -t 0.10102 -s 2 -d 3 -p cbr -e 500 -c 0 -i 0 -a 0 -x {0.0 3.0 0 ------- null}
h -t 0.10102 -s 2 -d 3 -p cbr -e 500 -c 0 -i 0 -a 0 -x {0.0 3.0 -1 ------- null}
+ -t 0.105 -s 0 -d 2 -p cbr -e 500 -c 0 -i 1 -a 0 -x {0.0 3.0 1 ------- null}
- -t 0.105 -s 0 -d 2 -p cbr -e 500 -c 0 -i 1 -a 0 -x {0.0 3.0 1 ------- null}
h -t 0.105 -s 0 -d 2 -p cbr -e 500 -c 0 -i 1 -a 0 -x {0.0 3.0 -1 ------- null}
r -t 0.10602 -s 2 -d 3 -p cbr -e 500 -c 0 -i 0 -a 0 -x {0.0 3.0 0 ------- null}
r -t 0.10602 -s 0 -d 2 -p cbr -e 500 -c 0 -i 1 -a 0 -x {0.0 3.0 1 ------- null}
+ -t 0.10602 -s 2 -d 3 -p cbr -e 500 -c 0 -i 1 -a 0 -x {0.0 3.0 1 ------- null}
- -t 0.10602 -s 2 -d 3 -p cbr -e 500 -c 0 -i 1 -a 0 -x {0.0 3.0 1 ------- null}
h -t 0.10602 -s 2 -d 3 -p cbr -e 500 -c 0 -i 1 -a 0 -x {0.0 3.0 -1 ------- null}
+ -t 0.11 -s 0 -d 2 -p cbr -e 500 -c 0 -i 2 -a 0 -x {0.0 3.0 2 ------- null}
- -t 0.11 -s 0 -d 2 -p cbr -e 500 -c 0 -i 2 -a 0 -x {0.0 3.0 2 ------- null}
h -t 0.11 -s 0 -d 2 -p cbr -e 500 -c 0 -i 2 -a 0 -x {0.0 3.0 -1 ------- null}
r -t 0.11102 -s 2 -d 3 -p cbr -e 500 -c 0 -i 1 -a 0 -x {0.0 3.0 1 ------- null}
r -t 0.11102 -s 0 -d 2 -p cbr -e 500 -c 0 -i 2 -a 0 -x {0.0 3.0 2 ------- null}
+ -t 0.11102 -s 2 -d 3 -p cbr -e 500 -c 0 -i 2 -a 0 -x {0.0 3.0 2 ------- null}
- -t 0.11102 -s 2 -d 3 -p cbr -e 500 -c 0 -i 2 -a 0 -x {0.0 3.0 2 ------- null}
h -t 0.11102 -s 2 -d 3 -p cbr -e 500 -c 0 -i 2 -a 0 -x {0.0 3.0 -1 ------- null}
+ -t 0.115 -s 0 -d 2 -p cbr -e 500 -c 0 -i 3 -a 0 -x {0.0 3.0 3 ------- null}
- -t 0.115 -s 0 -d 2 -p cbr -e 500 -c 0 -i 3 -a 0 -x {0.0 3.0 3 ------- null}
h -t 0.115 -s 0 -d 2 -p cbr -e 500 -c 0 -i 3 -a 0 -x {0.0 3.0 -1 ------- null}
r -t 0.11602 -s 2 -d 3 -p cbr -e 500 -c 0 -i 2 -a 0 -x {0.0 3.0 2 ------- null}
r -t 0.11602 -s 0 -d 2 -p cbr -e 500 -c 0 -i 3 -a 0 -x {0.0 3.0 3 ------- null}
+ -t 0.11602 -s 2 -d 3 -p cbr -e 500 -c 0 -i 3 -a 0 -x {0.0 3.0 3 ------- null}
- -t 0.11602 -s 2 -d 3 -p cbr -e 500 -c 0 -i 3 -a 0 -x {0.0 3.0 3 ------- null}
h -t 0.11602 -s 2 -d 3 -p cbr -e 500 -c 0 -i 3 -a 0 -x {0.0 3.0 -1 ------- null}
+ -t 0.12 -s 0 -d 2 -p cbr -e 500 -c 0 -i 4 -a 0 -x {0.0 3.0 4 ------- null}
- -t 0.12 -s 0 -d 2 -p cbr -e 500 -c 0 -i 4 -a 0 -x {0.0 3.0 4 ------- null}
h -t 0.12 -s 0 -d 2 -p cbr -e 500 -c 0 -i 4 -a 0 -x {0.0 3.0 -1 ------- null}
r -t 0.12102 -s 2 -d 3 -p cbr -e 500 -c 0 -i 3 -a 0 -x {0.0 3.0 3 ------- null}
r -t 0.12102 -s 0 -d 2 -p cbr -e 500 -c 0 -i 4 -a 0 -x {0.0 3.0 4 ------- null}
+ -t 0.12102 -s 2 -d 3 -p cbr -e 500 -c 0 -i 4 -a 0 -x {0.0 3.0 4 ------- null}
- -t 0.12102 -s 2 -d 3 -p cbr -e 500 -c 0 -i 4 -a 0 -x {0.0 3.0 4 ------- null}
h -t 0.12102 -s 2 -d 3 -p cbr -e 500 -c 0 -i 4 -a 0 -x {0.0 3.0 -1 ------- null}
+ -t 0.125 -s 0 -d 2 -p cbr -e 500 -c 0 -i 5 -a 0 -x {0.0 3.0 5 ------- null}
- -t 0.125 -s 0 -d 2 -p cbr -e 500 -c 0 -i 5 -a 0 -x {0.0 3.0 5 ------- null}
h -t 0.125 -s 0 -d 2 -p cbr -e 500 -c 0 -i 5 -a 0 -x {0.0 3.0 -1 ------- null}
r -t 0.12602 -s 2 -d 3 -p cbr -e 500 -c 0 -i 4 -a 0 -x {0.0 3.0 4 ------- null}
r -t 0.12602 -s 0 -d 2 -p cbr -e 500 -c 0 -i 5 -a 0 -x {0.0 3.0 5 ------- null}
+ -t 0.12602 -s 2 -d 3 -p cbr -e 500 -c 0 -i 5 -a 0 -x {0.0 3.0 5 ------- null}
- -t 0.12602 -s 2 -d 3 -p cbr -e 500 -c 0 -i 5 -a 0 -x {0.0 3.0 5 ------- null}
h -t 0.12602 -s 2 -d 3 -p cbr -e 500 -c 0 -i 5 -a 0 -x {0.0 3.0 -1 ------- null}
+ -t 0.13 -s 0 -d 2 -p cbr -e 500 -c 0 -i 6 -a 0 -x {0.0 3.0 6 ------- null}
- -t 0.13 -s 0 -d 2 -p cbr -e 500 -c 0 -i 6 -a 0 -x {0.0 3.0 6 ------- null}
h -t 0.13 -s 0 -d 2 -p cbr -e 500 -c 0 -i 6 -a 0 -x {0.0 3.0 -1 ------- null}
r -t 0.13102 -s 2 -d 3 -p cbr -e 500 -c 0 -i 5 -a 0 -x {0.0 3.0 5 ------- null}
r -t 0.13102 -s 0 -d 2 -p cbr -e 500 -c 0 -i 6 -a 0 -x {0.0 3.0 6 ------- null}
+ -t 0.13102 -s 2 -d 3 -p cbr -e 500 -c 0 -i 6 -a 0 -x {0.0 3.0 6 ------- null}
- -t 0.13102 -s 2 -d 3 -p cbr -e 500 -c 0 -i 6 -a 0 -x {0.0 3.0 6 ------- null}
h -t 0.13102 -s 2 -d 3 -p cbr -e 500 -c 0 -i 6 -a 0 -x {0.0 3.0 -1 ------- null}
+ -t 0.135 -s 0 -d 2 -p cbr -e 500 -c 0 -i 7 -a 0 -x {0.0 3.0 7 ------- null}
- -t 0.135 -s 0 -d 2 -p cbr -e 500 -c 0 -i 7 -a 0 -x {0.0 3.0 7 ------- null}
h -t 0.135 -s 0 -d 2 -p cbr -e 500 -c 0 -i 7 -a 0 -x {0.0 3.0 -1 ------- null}
r -t 0.13602 -s 2 -d 3 -p cbr -e 500 -c 0 -i 6 -a 0 -x {0.0 3.0 6 ------- null}
r -t 0.13602 -s 0 -d 2 -p cbr -e 500 -c 0 -i 7 -a 0 -x {0.0 3.0 7 ------- null}
+ -t 0.13602 -s 2 -d 3 -p cbr -e 500 -c 0 -i 7 -a 0 -x {0.0 3.0 7 ------- null}
- -t 0.13602 -s 2 -d 3 -p cbr -e 500 -c 0 -i 7 -a 0 -x {0.0 3.0 7 ------- null}
h -t 0.13602 -s 2 -d 3 -p cbr -e 500 -c 0 -i 7 -a 0 -x {0.0 3.0 -1 ------- null}
+ -t 0.14 -s 0 -d 2 -p cbr -e 500 -c 0 -i 8 -a 0 -x {0.0 3.0 8 ------- null}
- -t 0.14 -s 0 -d 2 -p cbr -e 500 -c 0 -i 8 -a 0 -x {0.0 3.0 8 ------- null}
h -t 0.14 -s 0 -d 2 -p cbr -e 500 -c 0 -i 8 -a 0 -x {0.0 3.0 -1 ------- null}
r -t 0.14102 -s 2 -d 3 -p cbr -e 500 -c 0 -i 7 -a 0 -x {0.0 3.0 7 ------- null}
r -t 0.14102 -s 0 -d 2 -p cbr -e 500 -c 0 -i 8 -a 0 -x {0.0 3.0 8 ------- null}
+ -t 0.14102 -s 2 -d 3 -p cbr -e 500 -c 0 -i 8 -a 0 -x {0.0 3.0 8 ------- null}
- -t 0.14102 -s 2 -d 3 -p cbr -e 500 -c 0 -i 8 -a 0 -x {0.0 3.0 8 ------- null}
h -t 0.14102 -s 2 -d 3 -p cbr -e 500 -c 0 -i 8 -a 0 -x {0.0 3.0 -1 ------- null}
+ -t 0.145 -s 0 -d 2 -p cbr -e 500 -c 0 -i 9 -a 0 -x {0.0 3.0 9 ------- null}
- -t 0.145 -s 0 -d 2 -p cbr -e 500 -c 0 -i 9 -a 0 -x {0.0 3.0 9 ------- null}
h -t 0.145 -s 0 -d 2 -p cbr -e 500 -c 0 -i 9 -a 0 -x {0.0 3.0 -1 ------- null}
r -t 0.14602 -s 2 -d 3 -p cbr -e 500 -c 0 -i 8 -a 0 -x {0.0 3.0 8 ------- null}
r -t 0.14602 -s 0 -d 2 -p cbr -e 500 -c 0 -i 9 -a 0 -x {0.0 3.0 9 ------- null}
+ -t 0.14602 -s 2 -d 3 -p cbr -e 500 -c 0 -i 9 -a 0 -x {0.0 3.0 9 ------- null}
- -t 0.14602 -s 2 -d 3 -p cbr -e 500 -c 0 -i 9 -a 0 -x {0.0 3.0 9 ------- null}
h -t 0.14602 -s 2 -d 3 -p cbr -e 500 -c 0 -i 9 -a 0 -x {0.0 3.0 -1 ------- null}
+ -t 0.15 -s 0 -d 2 -p cbr -e 500 -c 0 -i 10 -a 0 -x {0.0 3.0 10 ------- null}
- -t 0.15 -s 0 -d 2 -p cbr -e 500 -c 0 -i 10 -a 0 -x {0.0 3.0 10 ------- null}
h -t 0.15 -s 0 -d 2 -p cbr -e 500 -c 0 -i 10 -a 0 -x {0.0 3.0 -1 ------- null}
r -t 0.15102 -s 2 -d 3 -p cbr -e 500 -c 0 -i 9 -a 0 -x {0.0 3.0 9 ------- null}
r -t 0.15102 -s 0 -d 2 -p cbr -e 500 -c 0 -i 10 -a 0 -x {0.0 3.0 10 ------- null}
+ -t 0.15102 -s 2 -d 3 -p cbr -e 500 -c 0 -i 10 -a 0 -x {0.0 3.0 10 ------- null}
- -t 0.15102 -s 2 -d 3 -p cbr -e 500 -c 0 -i 10 -a 0 -x {0.0 3.0 10 ------- null}
h -t 0.15102 -s 2 -d 3 -p cbr -e 500 -c 0 -i 10 -a 0 -x {0.0 3.0 -1 ------- null}
+ -t 0.155 -s 0 -d 2 -p cbr -e 500 -c 0 -i 11 -a 0 -x {0.0 3.0 11 ------- null}
- -t 0.155 -s 0 -d 2 -p cbr -e 500 -c 0 -i 11 -a 0 -x {0.0 3.0 11 ------- null}
h -t 0.155 -s 0 -d 2 -p cbr -e 500 -c 0 -i 11 -a 0 -x {0.0 3.0 -1 ------- null}
r -t 0.15602 -s 2 -d 3 -p cbr -e 500 -c 0 -i 10 -a 0 -x {0.0 3.0 10 ------- null}
r -t 0.15602 -s 0 -d 2 -p cbr -e 500 -c 0 -i 11 -a 0 -x {0.0 3.0 11 ------- null}
+ -t 0.15602 -s 2 -d 3 -p cbr -e 500 -c 0 -i 11 -a 0 -x {0.0 3.0 11 ------- null}
- -t 0.15602 -s 2 -d 3 -p cbr -e 500 -c 0 -i 11 -a 0 -x {0.0 3.0 11 ------- null}
h -t 0.15602 -s 2 -d 3 -p cbr -e 500 -c 0 -i 11 -a 0 -x {0.0 3.0 -1 ------- null}
+ -t 0.16 -s 0 -d 2 -p cbr -e 500 -c 0 -i 12 -a 0 -x {0.0 3.0 12 ------- null}
- -t 0.16 -s 0 -d 2 -p cbr -e 500 -c 0 -i 12 -a 0 -x {0.0 3.0 12 ------- null}
h -t 0.16 -s 0 -d 2 -p cbr -e 500 -c 0 -i 12 -a 0 -x {0.0 3.0 -1 ------- null}
r -t 0.16102 -s 2 -d 3 -p cbr -e 500 -c 0 -i 11 -a 0 -x {0.0 3.0 11 ------- null}
r -t 0.16102 -s 0 -d 2 -p cbr -e 500 -c 0 -i 12 -a 0 -x {0.0 3.0 12 ------- null}
+ -t 0.16102 -s 2 -d 3 -p cbr -e 500 -c 0 -i 12 -a 0 -x {0.0 3.0 12 ------- null}
- -t 0.16102 -s 2 -d 3 -p cbr -e 500 -c 0 -i 12 -a 0 -x {0.0 3.0 12 ------- null}
h -t 0.16102 -s 2 -d 3 -p cbr -e 500 -c 0 -i 12 -a 0 -x {0.0 3.0 -1 ------- null}
+ -t 0.165 -s 0 -d 2 -p cbr -e 500 -c 0 -i 13 -a 0 -x {0.0 3.0 13 ------- null}
- -t 0.165 -s 0 -d 2 -p cbr -e 500 -c 0 -i 13 -a 0 -x {0.0 3.0 13 ------- null}
h -t 0.165 -s 0 -d 2 -p cbr -e 500 -c 0 -i 13 -a 0 -x {0.0 3.0 -1 ------- null}
r -t 0.16602 -s 2 -d 3 -p cbr -e 500 -c 0 -i 12 -a 0 -x {0.0 3.0 12 ------- null}
r -t 0.16602 -s 0 -d 2 -p cbr -e 500 -c 0 -i 13 -a 0 -x {0.0 3.0 13 ------- null}
+ -t 0.16602 -s 2 -d 3 -p cbr -e 500 -c 0 -i 13 -a 0 -x {0.0 3.0 13 ------- null}
- -t 0.16602 -s 2 -d 3 -p cbr -e 500 -c 0 -i 13 -a 0 -x {0.0 3.0 13 ------- null}
h -t 0.16602 -s 2 -d 3 -p cbr -e 500 -c 0 -i 13 -a 0 -x {0.0 3.0 -1 ------- null}
+ -t 0.17 -s 0 -d 2 -p cbr -e 500 -c 0 -i 14 -a 0 -x {0.0 3.0 14 ------- null}
- -t 0.17 -s 0 -d 2 -p cbr -e 500 -c 0 -i 14 -a 0 -x {0.0 3.0 14 ------- null}
h -t 0.17 -s 0 -d 2 -p cbr -e 500 -c 0 -i 14 -a 0 -x {0.0 3.0 -1 ------- null}
r -t 0.17102 -s 2 -d 3 -p cbr -e 500 -c 0 -i 13 -a 0 -x {0.0 3.0 13 ------- null}
r -t 0.17102 -s 0 -d 2 -p cbr -e 500 -c 0 -i 14 -a 0 -x {0.0 3.0 14 ------- null}
+ -t 0.17102 -s 2 -d 3 -p cbr -e 500 -c 0 -i 14 -a 0 -x {0.0 3.0 14 ------- null}
- -t 0.17102 -s 2 -d 3 -p cbr -e 500 -c 0 -i 14 -a 0 -x {0.0 3.0 14 ------- null}
h -t 0.17102 -s 2 -d 3 -p cbr -e 500 -c 0 -i 14 -a 0 -x {0.0 3.0 -1 ------- null}
+ -t 0.175 -s 0 -d 2 -p cbr -e 500 -c 0 -i 15 -a 0 -x {0.0 3.0 15 ------- null}
- -t 0.175 -s 0 -d 2 -p cbr -e 500 -c 0 -i 15 -a 0 -x {0.0 3.0 15 ------- null}
h -t 0.175 -s 0 -d 2 -p cbr -e 500 -c 0 -i 15 -a 0 -x {0.0 3.0 -1 ------- null}
r -t 0.17602 -s 2 -d 3 -p cbr -e 500 -c 0 -i 14 -a 0 -x {0.0 3.0 14 ------- null}
r -t 0.17602 -s 0 -d 2 -p cbr -e 500 -c 0 -i 15 -a 0 -x {0.0 3.0 15 ------- null}
+ -t 0.17602 -s 2 -d 3 -p cbr -e 500 -c 0 -i 15 -a 0 -x {0.0 3.0 15 ------- null}
- -t 0.17602 -s 2 -d 3 -p cbr -e 500 -c 0 -i 15 -a 0 -x {0.0 3.0 15 ------- null}
h -t 0.17602 -s 2 -d 3 -p cbr -e 500 -c 0 -i 15 -a 0 -x {0.0 3.0 -1 ------- null}
+ -t 0.18 -s 0 -d 2 -p cbr -e 500 -c 0 -i 16 -a 0 -x {0.0 3.0 16 ------- null}
- -t 0.18 -s 0 -d 2 -p cbr -e 500 -c 0 -i 16 -a 0 -x {0.0 3.0 16 ------- null}
h -t 0.18 -s 0 -d 2 -p cbr -e 500 -c 0 -i 16 -a 0 -x {0.0 3.0 -1 ------- null}
r -t 0.18102 -s 2 -d 3 -p cbr -e 500 -c 0 -i 15 -a 0 -x {0.0 3.0 15 ------- null}
r -t 0.18102 -s 0 -d 2 -p cbr -e 500 -c 0 -i 16 -a 0 -x {0.0 3.0 16 ------- null}
+ -t 0.18102 -s 2 -d 3 -p cbr -e 500 -c 0 -i 16 -a 0 -x {0.0 3.0 16 ------- null}
- -t 0.18102 -s 2 -d 3 -p cbr -e 500 -c 0 -i 16 -a 0 -x {0.0 3.0 16 ------- null}
h -t 0.18102 -s 2 -d 3 -p cbr -e 500 -c 0 -i 16 -a 0 -x {0.0 3.0 -1 ------- null}
+ -t 0.185 -s 0 -d 2 -p cbr -e 500 -c 0 -i 17 -a 0 -x {0.0 3.0 17 ------- null}
- -t 0.185 -s 0 -d 2 -p cbr -e 500 -c 0 -i 17 -a 0 -x {0.0 3.0 17 ------- null}
h -t 0.185 -s 0 -d 2 -p cbr -e 500 -c 0 -i 17 -a 0 -x {0.0 3.0 -1 ------- null}
r -t 0.18602 -s 2 -d 3 -p cbr -e 500 -c 0 -i 16 -a 0 -x {0.0 3.0 16 ------- null}
r -t 0.18602 -s 0 -d 2 -p cbr -e 500 -c 0 -i 17 -a 0 -x {0.0 3.0 17 ------- null}
+ -t 0.18602 -s 2 -d 3 -p cbr -e 500 -c 0 -i 17 -a 0 -x {0.0 3.0 17 ------- null}
- -t 0.18602 -s 2 -d 3 -p cbr -e 500 -c 0 -i 17 -a 0 -x {0.0 3.0 17 ------- null}
h -t 0.18602 -s 2 -d 3 -p cbr -e 500 -c 0 -i 17 -a 0 -x {0.0 3.0 -1 ------- null}
+ -t 0.19 -s 0 -d 2 -p cbr -e 500 -c 0 -i 18 -a 0 -x {0.0 3.0 18 ------- null}
- -t 0.19 -s 0 -d 2 -p cbr -e 500 -c 0 -i 18 -a 0 -x {0.0 3.0 18 ------- null}
h -t 0.19 -s 0 -d 2 -p cbr -e 500 -c 0 -i 18 -a 0 -x {0.0 3.0 -1 ------- null}
r -t 0.19102 -s 2 -d 3 -p cbr -e 500 -c 0 -i 17 -a 0 -x {0.0 3.0 17 ------- null}
r -t 0.19102 -s 0 -d 2 -p cbr -e 500 -c 0 -i 18 -a 0 -x {0.0 3.0 18 ------- null}
+ -t 0.19102 -s 2 -d 3 -p cbr -e 500 -c 0 -i 18 -a 0 -x {0.0 3.0 18 ------- null}
- -t 0.19102 -s 2 -d 3 -p cbr -e 500 -c 0 -i 18 -a 0 -x {0.0 3.0 18 ------- null}
h -t 0.19102 -s 2 -d 3 -p cbr -e 500 -c 0 -i 18 -a 0 -x {0.0 3.0 -1 ------- null}
+ -t 0.195 -s 0 -d 2 -p cbr -e 500 -c 0 -i 19 -a 0 -x {0.0 3.0 19 ------- null}
- -t 0.195 -s 0 -d 2 -p cbr -e 500 -c 0 -i 19 -a 0 -x {0.0 3.0 19 ------- null}
h -t 0.195 -s 0 -d 2 -p cbr -e 500 -c 0 -i 19 -a 0 -x {0.0 3.0 -1 ------- null}
r -t 0.19602 -s 2 -d 3 -p cbr -e 500 -c 0 -i 18 -a 0 -x {0.0 3.0 18 ------- null}
r -t 0.19602 -s 0 -d 2 -p cbr -e 500 -c 0 -i 19 -a 0 -x {0.0 3.0 19 ------- null}
+ -t 0.19602 -s 2 -d 3 -p cbr -e 500 -c 0 -i 19 -a 0 -x {0.0 3.0 19 ------- null}
- -t 0.19602 -s 2 -d 3 -p cbr -e 500 -c 0 -i 19 -a 0 -x {0.0 3.0 19 ------- null}
h -t 0.19602 -s 2 -d 3 -p cbr -e 500 -c 0 -i 19 -a 0 -x {0.0 3.0 -1 ------- null}
+ -t 0.2 -s 1 -d 2 -p cbr -e 210 -c 0 -i 20 -a 0 -x {1.0 3.0 0 ------- null}
- -t 0.2 -s 1 -d 2 -p cbr -e 210 -c 0 -i 20 -a 0 -x {1.0 3.0 0 ------- null}
h -t 0.2 -s 1 -d 2 -p cbr -e 210 -c 0 -i 20 -a 0 -x {1.0 3.0 -1 ------- null}
+ -t 0.2 -s 0 -d 2 -p cbr -e 500 -c 0 -i 21 -a 0 -x {0.0 3.0 20 ------- null}
- -t 0.2 -s 0 -d 2 -p cbr -e 500 -c 0 -i 21 -a 0 -x {0.0 3.0 20 ------- null}
h -t 0.2 -s 0 -d 2 -p cbr -e 500 -c 0 -i 21 -a 0 -x {0.0 3.0 -1 ------- null}
r -t 0.20102 -s 2 -d 3 -p cbr -e 500 -c 0 -i 19 -a 0 -x {0.0 3.0 19 ------- null}
r -t 0.20102 -s 0 -d 2 -p cbr -e 500 -c 0 -i 21 -a 0 -x {0.0 3.0 20 ------- null}
+ -t 0.20102 -s 2 -d 3 -p cbr -e 500 -c 0 -i 21 -a 0 -x {0.0 3.0 20 ------- null}
- -t 0.20102 -s 2 -d 3 -p cbr -e 500 -c 0 -i 21 -a 0 -x {0.0 3.0 20 ------- null}
h -t 0.20102 -s 2 -d 3 -p cbr -e 500 -c 0 -i 21 -a 0 -x {0.0 3.0 -1 ------- null}
+ -t 0.20375 -s 1 -d 2 -p cbr -e 210 -c 0 -i 22 -a 0 -x {1.0 3.0 1 ------- null}
- -t 0.20375 -s 1 -d 2 -p cbr -e 210 -c 0 -i 22 -a 0 -x {1.0 3.0 1 ------- null}
h -t 0.20375 -s 1 -d 2 -p cbr -e 210 -c 0 -i 22 -a 0 -x {1.0 3.0 -1 ------- null}
+ -t 0.205 -s 0 -d 2 -p cbr -e 500 -c 0 -i 23 -a 0 -x {0.0 3.0 21 ------- null}
- -t 0.205 -s 0 -d 2 -p cbr -e 500 -c 0 -i 23 -a 0 -x {0.0 3.0 21 ------- null}
h -t 0.205 -s 0 -d 2 -p cbr -e 500 -c 0 -i 23 -a 0 -x {0.0 3.0 -1 ------- null}
r -t 0.2050168 -s 1 -d 2 -p cbr -e 210 -c 0 -i 20 -a 0 -x {1.0 3.0 0 ------- null}
+ -t 0.2050168 -s 2 -d 3 -p cbr -e 210 -c 0 -i 20 -a 0 -x {1.0 3.0 0 ------- null}
- -t 0.20502 -s 2 -d 3 -p cbr -e 210 -c 0 -i 20 -a 0 -x {1.0 3.0 0 ------- null}
h -t 0.20502 -s 2 -d 3 -p cbr -e 210 -c 0 -i 20 -a 0 -x {1.0 3.0 -1 ------- null}
r -t 0.20602 -s 2 -d 3 -p cbr -e 500 -c 0 -i 21 -a 0 -x {0.0 3.0 20 ------- null}
r -t 0.20602 -s 0 -d 2 -p cbr -e 500 -c 0 -i 23 -a 0 -x {0.0 3.0 21 ------- null}
+ -t 0.20602 -s 2 -d 3 -p cbr -e 500 -c 0 -i 23 -a 0 -x {0.0 3.0 21 ------- null}
- -t 0.2067 -s 2 -d 3 -p cbr -e 500 -c 0 -i 23 -a 0 -x {0.0 3.0 21 ------- null}
h -t 0.2067 -s 2 -d 3 -p cbr -e 500 -c 0 -i 23 -a 0 -x {0.0 3.0 -1 ------- null}
+ -t 0.2075 -s 1 -d 2 -p cbr -e 210 -c 0 -i 24 -a 0 -x {1.0 3.0 2 ------- null}
- -t 0.2075 -s 1 -d 2 -p cbr -e 210 -c 0 -i 24 -a 0 -x {1.0 3.0 2 ------- null}
h -t 0.2075 -s 1 -d 2 -p cbr -e 210 -c 0 -i 24 -a 0 -x {1.0 3.0 -1 ------- null}
r -t 0.2077 -s 2 -d 3 -p cbr -e 210 -c 0 -i 20 -a 0 -x {1.0 3.0 0 ------- null}
r -t 0.2087668 -s 1 -d 2 -p cbr -e 210 -c 0 -i 22 -a 0 -x {1.0 3.0 1 ------- null}
+ -t 0.2087668 -s 2 -d 3 -p cbr -e 210 -c 0 -i 22 -a 0 -x {1.0 3.0 1 ------- null}
+ -t 0.21 -s 0 -d 2 -p cbr -e 500 -c 0 -i 25 -a 0 -x {0.0 3.0 22 ------- null}
- -t 0.21 -s 0 -d 2 -p cbr -e 500 -c 0 -i 25 -a 0 -x {0.0 3.0 22 ------- null}
h -t 0.21 -s 0 -d 2 -p cbr -e 500 -c 0 -i 25 -a 0 -x {0.0 3.0 -1 ------- null}
- -t 0.2107 -s 2 -d 3 -p cbr -e 210 -c 0 -i 22 -a 0 -x {1.0 3.0 1 ------- null}
h -t 0.2107 -s 2 -d 3 -p cbr -e 210 -c 0 -i 22 -a 0 -x {1.0 3.0 -1 ------- null}
r -t 0.21102 -s 0 -d 2 -p cbr -e 500 -c 0 -i 25 -a 0 -x {0.0 3.0 22 ------- null}
+ -t 0.21102 -s 2 -d 3 -p cbr -e 500 -c 0 -i 25 -a 0 -x {0.0 3.0 22 ------- null}
+ -t 0.21125 -s 1 -d 2 -p cbr -e 210 -c 0 -i 26 -a 0 -x {1.0 3.0 3 ------- null}
- -t 0.21125 -s 1 -d 2 -p cbr -e 210 -c 0 -i 26 -a 0 -x {1.0 3.0 3 ------- null}
h -t 0.21125 -s 1 -d 2 -p cbr -e 210 -c 0 -i 26 -a 0 -x {1.0 3.0 -1 ------- null}
r -t 0.2117 -s 2 -d 3 -p cbr -e 500 -c 0 -i 23 -a 0 -x {0.0 3.0 21 ------- null}
- -t 0.21238 -s 2 -d 3 -p cbr -e 500 -c 0 -i 25 -a 0 -x {0.0 3.0 22 ------- null}
h -t 0.21238 -s 2 -d 3 -p cbr -e 500 -c 0 -i 25 -a 0 -x {0.0 3.0 -1 ------- null}
r -t 0.2125168 -s 1 -d 2 -p cbr -e 210 -c 0 -i 24 -a 0 -x {1.0 3.0 2 ------- null}
+ -t 0.2125168 -s 2 -d 3 -p cbr -e 210 -c 0 -i 24 -a 0 -x {1.0 3.0 2 ------- null}
r -t 0.21338 -s 2 -d 3 -p cbr -e 210 -c 0 -i 22 -a 0 -x {1.0 3.0 1 ------- null}
+ -t 0.215 -s 1 -d 2 -p cbr -e 210 -c 0 -i 27 -a 0 -x {1.0 3.0 4 ------- null}
- -t 0.215 -s 1 -d 2 -p cbr -e 210 -c 0 -i 27 -a 0 -x {1.0 3.0 4 ------- null}
h -t 0.215 -s 1 -d 2 -p cbr -e 210 -c 0 -i 27 -a 0 -x {1.0 3.0 -1 ------- null}
+ -t 0.215 -s 0 -d 2 -p cbr -e 500 -c 0 -i 28 -a 0 -x {0.0 3.0 23 ------- null}
- -t 0.215 -s 0 -d 2 -p cbr -e 500 -c 0 -i 28 -a 0 -x {0.0 3.0 23 ------- null}
h -t 0.215 -s 0 -d 2 -p cbr -e 500 -c 0 -i 28 -a 0 -x {0.0 3.0 -1 ------- null}
r -t 0.21602 -s 0 -d 2 -p cbr -e 500 -c 0 -i 28 -a 0 -x {0.0 3.0 23 ------- null}
+ -t 0.21602 -s 2 -d 3 -p cbr -e 500 -c 0 -i 28 -a 0 -x {0.0 3.0 23 ------- null}
r -t 0.2162668 -s 1 -d 2 -p cbr -e 210 -c 0 -i 26 -a 0 -x {1.0 3.0 3 ------- null}
+ -t 0.2162668 -s 2 -d 3 -p cbr -e 210 -c 0 -i 26 -a 0 -x {1.0 3.0 3 ------- null}
- -t 0.21638 -s 2 -d 3 -p cbr -e 210 -c 0 -i 24 -a 0 -x {1.0 3.0 2 ------- null}
h -t 0.21638 -s 2 -d 3 -p cbr -e 210 -c 0 -i 24 -a 0 -x {1.0 3.0 -1 ------- null}
r -t 0.21738 -s 2 -d 3 -p cbr -e 500 -c 0 -i 25 -a 0 -x {0.0 3.0 22 ------- null}
- -t 0.21806 -s 2 -d 3 -p cbr -e 500 -c 0 -i 28 -a 0 -x {0.0 3.0 23 ------- null}
h -t 0.21806 -s 2 -d 3 -p cbr -e 500 -c 0 -i 28 -a 0 -x {0.0 3.0 -1 ------- null}
+ -t 0.21875 -s 1 -d 2 -p cbr -e 210 -c 0 -i 29 -a 0 -x {1.0 3.0 5 ------- null}
- -t 0.21875 -s 1 -d 2 -p cbr -e 210 -c 0 -i 29 -a 0 -x {1.0 3.0 5 ------- null}
h -t 0.21875 -s 1 -d 2 -p cbr -e 210 -c 0 -i 29 -a 0 -x {1.0 3.0 -1 ------- null}
r -t 0.21906 -s 2 -d 3 -p cbr -e 210 -c 0 -i 24 -a 0 -x {1.0 3.0 2 ------- null}
+ -t 0.22 -s 0 -d 2 -p cbr -e 500 -c 0 -i 30 -a 0 -x {0.0 3.0 24 ------- null}
- -t 0.22 -s 0 -d 2 -p cbr -e 500 -c 0 -i 30 -a 0 -x {0.0 3.0 24 ------- null}
h -t 0.22 -s 0 -d 2 -p cbr -e 500 -c 0 -i 30 -a 0 -x {0.0 3.0 -1 ------- null}
r -t 0.2200168 -s 1 -d 2 -p cbr -e 210 -c 0 -i 27 -a 0 -x {1.0 3.0 4 ------- null}
+ -t 0.2200168 -s 2 -d 3 -p cbr -e 210 -c 0 -i 27 -a 0 -x {1.0 3.0 4 ------- null}
r -t 0.22102 -s 0 -d 2 -p cbr -e 500 -c 0 -i 30 -a 0 -x {0.0 3.0 24 ------- null}
+ -t 0.22102 -s 2 -d 3 -p cbr -e 500 -c 0 -i 30 -a 0 -x {0.0 3.0 24 ------- null}
- -t 0.22206 -s 2 -d 3 -p cbr -e 210 -c 0 -i 26 -a 0 -x {1.0 3.0 3 ------- null}
h -t 0.22206 -s 2 -d 3 -p cbr -e 210 -c 0 -i 26 -a 0 -x {1.0 3.0 -1 ------- null}
+ -t 0.2225 -s 1 -d 2 -p cbr -e 210 -c 0 -i 31 -a 0 -x {1.0 3.0 6 ------- null}
- -t 0.2225 -s 1 -d 2 -p cbr -e 210 -c 0 -i 31 -a 0 -x {1.0 3.0 6 ------- null}
h -t 0.2225 -s 1 -d 2 -p cbr -e 210 -c 0 -i 31 -a 0 -x {1.0 3.0 -1 ------- null}
r -t 0.22306 -s 2 -d 3 -p cbr -e 500 -c 0 -i 28 -a 0 -x {0.0 3.0 23 ------- null}
- -t 0.22374 -s 2 -d 3 -p cbr -e 210 -c 0 -i 27 -a 0 -x {1.0 3.0 4 ------- null}
h -t 0.22374 -s 2 -d 3 -p cbr -e 210 -c 0 -i 27 -a 0 -x {1.0 3.0 -1 ------- null}
r -t 0.2237668 -s 1 -d 2 -p cbr -e 210 -c 0 -i 29 -a 0 -x {1.0 3.0 5 ------- null}
+ -t 0.2237668 -s 2 -d 3 -p cbr -e 210 -c 0 -i 29 -a 0 -x {1.0 3.0 5 ------- null}
r -t 0.22474 -s 2 -d 3 -p cbr -e 210 -c 0 -i 26 -a 0 -x {1.0 3.0 3 ------- null}
+ -t 0.225 -s 0 -d 2 -p cbr -e 500 -c 0 -i 32 -a 0 -x {0.0 3.0 25 ------- null}
- -t 0.225 -s 0 -d 2 -p cbr -e 500 -c 0 -i 32 -a 0 -x {0.0 3.0 25 ------- null}
h -t 0.225 -s 0 -d 2 -p cbr -e 500 -c 0 -i 32 -a 0 -x {0.0 3.0 -1 ------- null}
- -t 0.22542 -s 2 -d 3 -p cbr -e 500 -c 0 -i 30 -a 0 -x {0.0 3.0 24 ------- null}
h -t 0.22542 -s 2 -d 3 -p cbr -e 500 -c 0 -i 30 -a 0 -x {0.0 3.0 -1 ------- null}
r -t 0.22602 -s 0 -d 2 -p cbr -e 500 -c 0 -i 32 -a 0 -x {0.0 3.0 25 ------- null}
+ -t 0.22602 -s 2 -d 3 -p cbr -e 500 -c 0 -i 32 -a 0 -x {0.0 3.0 25 ------- null}
+ -t 0.22625 -s 1 -d 2 -p cbr -e 210 -c 0 -i 33 -a 0 -x {1.0 3.0 7 ------- null}
- -t 0.22625 -s 1 -d 2 -p cbr -e 210 -c 0 -i 33 -a 0 -x {1.0 3.0 7 ------- null}
h -t 0.22625 -s 1 -d 2 -p cbr -e 210 -c 0 -i 33 -a 0 -x {1.0 3.0 -1 ------- null}
r -t 0.22642 -s 2 -d 3 -p cbr -e 210 -c 0 -i 27 -a 0 -x {1.0 3.0 4 ------- null}
r -t 0.2275168 -s 1 -d 2 -p cbr -e 210 -c 0 -i 31 -a 0 -x {1.0 3.0 6 ------- null}
+ -t 0.2275168 -s 2 -d 3 -p cbr -e 210 -c 0 -i 31 -a 0 -x {1.0 3.0 6 ------- null}
- -t 0.22942 -s 2 -d 3 -p cbr -e 210 -c 0 -i 29 -a 0 -x {1.0 3.0 5 ------- null}
h -t 0.22942 -s 2 -d 3 -p cbr -e 210 -c 0 -i 29 -a 0 -x {1.0 3.0 -1 ------- null}
+ -t 0.23 -s 1 -d 2 -p cbr -e 210 -c 0 -i 34 -a 0 -x {1.0 3.0 8 ------- null}
- -t 0.23 -s 1 -d 2 -p cbr -e 210 -c 0 -i 34 -a 0 -x {1.0 3.0 8 ------- null}
h -t 0.23 -s 1 -d 2 -p cbr -e 210 -c 0 -i 34 -a 0 -x {1.0 3.0 -1 ------- null}
+ -t 0.23 -s 0 -d 2 -p cbr -e 500 -c 0 -i 35 -a 0 -x {0.0 3.0 26 ------- null}
- -t 0.23 -s 0 -d 2 -p cbr -e 500 -c 0 -i 35 -a 0 -x {0.0 3.0 26 ------- null}
h -t 0.23 -s 0 -d 2 -p cbr -e 500 -c 0 -i 35 -a 0 -x {0.0 3.0 -1 ------- null}
r -t 0.23042 -s 2 -d 3 -p cbr -e 500 -c 0 -i 30 -a 0 -x {0.0 3.0 24 ------- null}
r -t 0.23102 -s 0 -d 2 -p cbr -e 500 -c 0 -i 35 -a 0 -x {0.0 3.0 26 ------- null}
+ -t 0.23102 -s 2 -d 3 -p cbr -e 500 -c 0 -i 35 -a 0 -x {0.0 3.0 26 ------- null}
- -t 0.2311 -s 2 -d 3 -p cbr -e 500 -c 0 -i 32 -a 0 -x {0.0 3.0 25 ------- null}
h -t 0.2311 -s 2 -d 3 -p cbr -e 500 -c 0 -i 32 -a 0 -x {0.0 3.0 -1 ------- null}
r -t 0.2312668 -s 1 -d 2 -p cbr -e 210 -c 0 -i 33 -a 0 -x {1.0 3.0 7 ------- null}
+ -t 0.2312668 -s 2 -d 3 -p cbr -e 210 -c 0 -i 33 -a 0 -x {1.0 3.0 7 ------- null}
r -t 0.2321 -s 2 -d 3 -p cbr -e 210 -c 0 -i 29 -a 0 -x {1.0 3.0 5 ------- null}
+ -t 0.23375 -s 1 -d 2 -p cbr -e 210 -c 0 -i 36 -a 0 -x {1.0 3.0 9 ------- null}
- -t 0.23375 -s 1 -d 2 -p cbr -e 210 -c 0 -i 36 -a 0 -x {1.0 3.0 9 ------- null}
h -t 0.23375 -s 1 -d 2 -p cbr -e 210 -c 0 -i 36 -a 0 -x {1.0 3.0 -1 ------- null}
+ -t 0.235 -s 0 -d 2 -p cbr -e 500 -c 0 -i 37 -a 0 -x {0.0 3.0 27 ------- null}
- -t 0.235 -s 0 -d 2 -p cbr -e 500 -c 0 -i 37 -a 0 -x {0.0 3.0 27 ------- null}
h -t 0.235 -s 0 -d 2 -p cbr -e 500 -c 0 -i 37 -a 0 -x {0.0 3.0 -1 ------- null}
r -t 0.2350168 -s 1 -d 2 -p cbr -e 210 -c 0 -i 34 -a 0 -x {1.0 3.0 8 ------- null}
+ -t 0.2350168 -s 2 -d 3 -p cbr -e 210 -c 0 -i 34 -a 0 -x {1.0 3.0 8 ------- null}
- -t 0.2351 -s 2 -d 3 -p cbr -e 210 -c 0 -i 31 -a 0 -x {1.0 3.0 6 ------- null}
h -t 0.2351 -s 2 -d 3 -p cbr -e 210 -c 0 -i 31 -a 0 -x {1.0 3.0 -1 ------- null}
r -t 0.23602 -s 0 -d 2 -p cbr -e 500 -c 0 -i 37 -a 0 -x {0.0 3.0 27 ------- null}
+ -t 0.23602 -s 2 -d 3 -p cbr -e 500 -c 0 -i 37 -a 0 -x {0.0 3.0 27 ------- null}
r -t 0.2361 -s 2 -d 3 -p cbr -e 500 -c 0 -i 32 -a 0 -x {0.0 3.0 25 ------- null}
- -t 0.23678 -s 2 -d 3 -p cbr -e 500 -c 0 -i 35 -a 0 -x {0.0 3.0 26 ------- null}
h -t 0.23678 -s 2 -d 3 -p cbr -e 500 -c 0 -i 35 -a 0 -x {0.0 3.0 -1 ------- null}
+ -t 0.2375 -s 1 -d 2 -p cbr -e 210 -c 0 -i 38 -a 0 -x {1.0 3.0 10 ------- null}
- -t 0.2375 -s 1 -d 2 -p cbr -e 210 -c 0 -i 38 -a 0 -x {1.0 3.0 10 ------- null}
h -t 0.2375 -s 1 -d 2 -p cbr -e 210 -c 0 -i 38 -a 0 -x {1.0 3.0 -1 ------- null}
r -t 0.23778 -s 2 -d 3 -p cbr -e 210 -c 0 -i 31 -a 0 -x {1.0 3.0 6 ------- null}
r -t 0.2387668 -s 1 -d 2 -p cbr -e 210 -c 0 -i 36 -a 0 -x {1.0 3.0 9 ------- null}
+ -t 0.2387668 -s 2 -d 3 -p cbr -e 210 -c 0 -i 36 -a 0 -x {1.0 3.0 9 ------- null}
+ -t 0.24 -s 0 -d 2 -p cbr -e 500 -c 0 -i 39 -a 0 -x {0.0 3.0 28 ------- null}
- -t 0.24 -s 0 -d 2 -p cbr -e 500 -c 0 -i 39 -a 0 -x {0.0 3.0 28 ------- null}
h -t 0.24 -s 0 -d 2 -p cbr -e 500 -c 0 -i 39 -a 0 -x {0.0 3.0 -1 ------- null}
- -t 0.24078 -s 2 -d 3 -p cbr -e 210 -c 0 -i 33 -a 0 -x {1.0 3.0 7 ------- null}
h -t 0.24078 -s 2 -d 3 -p cbr -e 210 -c 0 -i 33 -a 0 -x {1.0 3.0 -1 ------- null}
r -t 0.24102 -s 0 -d 2 -p cbr -e 500 -c 0 -i 39 -a 0 -x {0.0 3.0 28 ------- null}
+ -t 0.24102 -s 2 -d 3 -p cbr -e 500 -c 0 -i 39 -a 0 -x {0.0 3.0 28 ------- null}
+ -t 0.24125 -s 1 -d 2 -p cbr -e 210 -c 0 -i 40 -a 0 -x {1.0 3.0 11 ------- null}
- -t 0.24125 -s 1 -d 2 -p cbr -e 210 -c 0 -i 40 -a 0 -x {1.0 3.0 11 ------- null}
h -t 0.24125 -s 1 -d 2 -p cbr -e 210 -c 0 -i 40 -a 0 -x {1.0 3.0 -1 ------- null}
r -t 0.24178 -s 2 -d 3 -p cbr -e 500 -c 0 -i 35 -a 0 -x {0.0 3.0 26 ------- null}
- -t 0.24246 -s 2 -d 3 -p cbr -e 210 -c 0 -i 34 -a 0 -x {1.0 3.0 8 ------- null}
h -t 0.24246 -s 2 -d 3 -p cbr -e 210 -c 0 -i 34 -a 0 -x {1.0 3.0 -1 ------- null}
r -t 0.2425168 -s 1 -d 2 -p cbr -e 210 -c 0 -i 38 -a 0 -x {1.0 3.0 10 ------- null}
+ -t 0.2425168 -s 2 -d 3 -p cbr -e 210 -c 0 -i 38 -a 0 -x {1.0 3.0 10 ------- null}
r -t 0.24346 -s 2 -d 3 -p cbr -e 210 -c 0 -i 33 -a 0 -x {1.0 3.0 7 ------- null}
- -t 0.24414 -s 2 -d 3 -p cbr -e 500 -c 0 -i 37 -a 0 -x {0.0 3.0 27 ------- null}
h -t 0.24414 -s 2 -d 3 -p cbr -e 500 -c 0 -i 37 -a 0 -x {0.0 3.0 -1 ------- null}
+ -t 0.245 -s 1 -d 2 -p cbr -e 210 -c 0 -i 41 -a 0 -x {1.0 3.0 12 ------- null}
- -t 0.245 -s 1 -d 2 -p cbr -e 210 -c 0 -i 41 -a 0 -x {1.0 3.0 12 ------- null}
h -t 0.245 -s 1 -d 2 -p cbr -e 210 -c 0 -i 41 -a 0 -x {1.0 3.0 -1 ------- null}
+ -t 0.245 -s 0 -d 2 -p cbr -e 500 -c 0 -i 42 -a 0 -x {0.0 3.0 29 ------- null}
- -t 0.245 -s 0 -d 2 -p cbr -e 500 -c 0 -i 42 -a 0 -x {0.0 3.0 29 ------- null}
h -t 0.245 -s 0 -d 2 -p cbr -e 500 -c 0 -i 42 -a 0 -x {0.0 3.0 -1 ------- null}
r -t 0.24514 -s 2 -d 3 -p cbr -e 210 -c 0 -i 34 -a 0 -x {1.0 3.0 8 ------- null}
r -t 0.24602 -s 0 -d 2 -p cbr -e 500 -c 0 -i 42 -a 0 -x {0.0 3.0 29 ------- null}
+ -t 0.24602 -s 2 -d 3 -p cbr -e 500 -c 0 -i 42 -a 0 -x {0.0 3.0 29 ------- null}
r -t 0.2462668 -s 1 -d 2 -p cbr -e 210 -c 0 -i 40 -a 0 -x {1.0 3.0 11 ------- null}
+ -t 0.2462668 -s 2 -d 3 -p cbr -e 210 -c 0 -i 40 -a 0 -x {1.0 3.0 11 ------- null}
- -t 0.24814 -s 2 -d 3 -p cbr -e 210 -c 0 -i 36 -a 0 -x {1.0 3.0 9 ------- null}
h -t 0.24814 -s 2 -d 3 -p cbr -e 210 -c 0 -i 36 -a 0 -x {1.0 3.0 -1 ------- null}
+ -t 0.24875 -s 1 -d 2 -p cbr -e 210 -c 0 -i 43 -a 0 -x {1.0 3.0 13 ------- null}
- -t 0.24875 -s 1 -d 2 -p cbr -e 210 -c 0 -i 43 -a 0 -x {1.0 3.0 13 ------- null}
h -t 0.24875 -s 1 -d 2 -p cbr -e 210 -c 0 -i 43 -a 0 -x {1.0 3.0 -1 ------- null}
r -t 0.24914 -s 2 -d 3 -p cbr -e 500 -c 0 -i 37 -a 0 -x {0.0 3.0 27 ------- null}
- -t 0.24982 -s 2 -d 3 -p cbr -e 500 -c 0 -i 39 -a 0 -x {0.0 3.0 28 ------- null}
h -t 0.24982 -s 2 -d 3 -p cbr -e 500 -c 0 -i 39 -a 0 -x {0.0 3.0 -1 ------- null}
+ -t 0.25 -s 0 -d 2 -p cbr -e 500 -c 0 -i 44 -a 0 -x {0.0 3.0 30 ------- null}
- -t 0.25 -s 0 -d 2 -p cbr -e 500 -c 0 -i 44 -a 0 -x {0.0 3.0 30 ------- null}
h -t 0.25 -s 0 -d 2 -p cbr -e 500 -c 0 -i 44 -a 0 -x {0.0 3.0 -1 ------- null}
r -t 0.2500168 -s 1 -d 2 -p cbr -e 210 -c 0 -i 41 -a 0 -x {1.0 3.0 12 ------- null}
+ -t 0.2500168 -s 2 -d 3 -p cbr -e 210 -c 0 -i 41 -a 0 -x {1.0 3.0 12 ------- null}
r -t 0.25082 -s 2 -d 3 -p cbr -e 210 -c 0 -i 36 -a 0 -x {1.0 3.0 9 ------- null}
r -t 0.25102 -s 0 -d 2 -p cbr -e 500 -c 0 -i 44 -a 0 -x {0.0 3.0 30 ------- null}
+ -t 0.25102 -s 2 -d 3 -p cbr -e 500 -c 0 -i 44 -a 0 -x {0.0 3.0 30 ------- null}
+ -t 0.2525 -s 1 -d 2 -p cbr -e 210 -c 0 -i 45 -a 0 -x {1.0 3.0 14 ------- null}
- -t 0.2525 -s 1 -d 2 -p cbr -e 210 -c 0 -i 45 -a 0 -x {1.0 3.0 14 ------- null}
h -t 0.2525 -s 1 -d 2 -p cbr -e 210 -c 0 -i 45 -a 0 -x {1.0 3.0 -1 ------- null}
r -t 0.2537668 -s 1 -d 2 -p cbr -e 210 -c 0 -i 43 -a 0 -x {1.0 3.0 13 ------- null}
+ -t 0.2537668 -s 2 -d 3 -p cbr -e 210 -c 0 -i 43 -a 0 -x {1.0 3.0 13 ------- null}
- -t 0.25382 -s 2 -d 3 -p cbr -e 210 -c 0 -i 38 -a 0 -x {1.0 3.0 10 ------- null}
h -t 0.25382 -s 2 -d 3 -p cbr -e 210 -c 0 -i 38 -a 0 -x {1.0 3.0 -1 ------- null}
r -t 0.25482 -s 2 -d 3 -p cbr -e 500 -c 0 -i 39 -a 0 -x {0.0 3.0 28 ------- null}
+ -t 0.255 -s 0 -d 2 -p cbr -e 500 -c 0 -i 46 -a 0 -x {0.0 3.0 31 ------- null}
- -t 0.255 -s 0 -d 2 -p cbr -e 500 -c 0 -i 46 -a 0 -x {0.0 3.0 31 ------- null}
h -t 0.255 -s 0 -d 2 -p cbr -e 500 -c 0 -i 46 -a 0 -x {0.0 3.0 -1 ------- null}
- -t 0.2555 -s 2 -d 3 -p cbr -e 500 -c 0 -i 42 -a 0 -x {0.0 3.0 29 ------- null}
h -t 0.2555 -s 2 -d 3 -p cbr -e 500 -c 0 -i 42 -a 0 -x {0.0 3.0 -1 ------- null}
r -t 0.25602 -s 0 -d 2 -p cbr -e 500 -c 0 -i 46 -a 0 -x {0.0 3.0 31 ------- null}
+ -t 0.25602 -s 2 -d 3 -p cbr -e 500 -c 0 -i 46 -a 0 -x {0.0 3.0 31 ------- null}
+ -t 0.25625 -s 1 -d 2 -p cbr -e 210 -c 0 -i 47 -a 0 -x {1.0 3.0 15 ------- null}
- -t 0.25625 -s 1 -d 2 -p cbr -e 210 -c 0 -i 47 -a 0 -x {1.0 3.0 15 ------- null}
h -t 0.25625 -s 1 -d 2 -p cbr -e 210 -c 0 -i 47 -a 0 -x {1.0 3.0 -1 ------- null}
r -t 0.2565 -s 2 -d 3 -p cbr -e 210 -c 0 -i 38 -a 0 -x {1.0 3.0 10 ------- null}
r -t 0.2575168 -s 1 -d 2 -p cbr -e 210 -c 0 -i 45 -a 0 -x {1.0 3.0 14 ------- null}
+ -t 0.2575168 -s 2 -d 3 -p cbr -e 210 -c 0 -i 45 -a 0 -x {1.0 3.0 14 ------- null}
- -t 0.2595 -s 2 -d 3 -p cbr -e 210 -c 0 -i 40 -a 0 -x {1.0 3.0 11 ------- null}
h -t 0.2595 -s 2 -d 3 -p cbr -e 210 -c 0 -i 40 -a 0 -x {1.0 3.0 -1 ------- null}
+ -t 0.26 -s 1 -d 2 -p cbr -e 210 -c 0 -i 48 -a 0 -x {1.0 3.0 16 ------- null}
- -t 0.26 -s 1 -d 2 -p cbr -e 210 -c 0 -i 48 -a 0 -x {1.0 3.0 16 ------- null}
h -t 0.26 -s 1 -d 2 -p cbr -e 210 -c 0 -i 48 -a 0 -x {1.0 3.0 -1 ------- null}